+ 0.5 1 0 tcp 55 ------- 1 1.0 7.0 0 0
- 0.5 1 0 tcp 55 ------- 1 1.0 7.0 0 0
r 0.51022 1 0 tcp 55 ------- 1 1.0 7.0 0 0
+ 0.51022 0 3 tcp 55 ------- 1 1.0 7.0 0 0
- 0.51022 0 3 tcp 55 ------- 1 1.0 7.0 0 0
r 0.53066 0 3 tcp 55 ------- 1 1.0 7.0 0 0
h 0.53066 3 9 tcp 55 ------- 1 1.0 7.0 0 0
+ 0.57066 3 9 tcp 55 ------- 1 1.0 7.0 0 0
- 0.57066 3 9 tcp 55 ------- 1 1.0 7.0 0 0
r 0.611742 9 7 tcp 55 ------- 1 1.0 7.0 0 0
h 0.611742 7 9 ack 40 ------- 1 7.0 1.0 0 1
+ 0.651742 7 9 ack 40 ------- 1 7.0 1.0 0 1
- 0.651742 7 9 ack 40 ------- 1 7.0 1.0 0 1
r 0.692746 9 3 ack 40 ------- 1 7.0 1.0 0 1
+ 0.692746 3 0 ack 40 ------- 1 7.0 1.0 0 1
- 0.692746 3 0 ack 40 ------- 1 7.0 1.0 0 1
r 0.713066 3 0 ack 40 ------- 1 7.0 1.0 0 1
+ 0.713066 0 1 ack 40 ------- 1 7.0 1.0 0 1
- 0.713066 0 1 ack 40 ------- 1 7.0 1.0 0 1
r 0.723226 0 1 ack 40 ------- 1 7.0 1.0 0 1
+ 0.723226 1 0 tcp 55 ------- 1 1.0 7.0 1 2
- 0.723226 1 0 tcp 55 ------- 1 1.0 7.0 1 2
r 0.733446 1 0 tcp 55 ------- 1 1.0 7.0 1 2
+ 0.733446 0 3 tcp 55 ------- 1 1.0 7.0 1 2
- 0.733446 0 3 tcp 55 ------- 1 1.0 7.0 1 2
r 0.753886 0 3 tcp 55 ------- 1 1.0 7.0 1 2
h 0.753886 3 9 tcp 55 ------- 1 1.0 7.0 1 2
+ 0.793886 3 9 tcp 55 ------- 1 1.0 7.0 1 2
- 0.793886 3 9 tcp 55 ------- 1 1.0 7.0 1 2
r 0.834968 9 7 tcp 55 ------- 1 1.0 7.0 1 2
h 0.834968 7 9 ack 40 ------- 1 7.0 1.0 1 3
+ 0.874968 7 9 ack 40 ------- 1 7.0 1.0 1 3
- 0.874968 7 9 ack 40 ------- 1 7.0 1.0 1 3
r 0.915972 9 3 ack 40 ------- 1 7.0 1.0 1 3
+ 0.915972 3 0 ack 40 ------- 1 7.0 1.0 1 3
- 0.915972 3 0 ack 40 ------- 1 7.0 1.0 1 3
r 0.936292 3 0 ack 40 ------- 1 7.0 1.0 1 3
+ 0.936292 0 1 ack 40 ------- 1 7.0 1.0 1 3
- 0.936292 0 1 ack 40 ------- 1 7.0 1.0 1 3
r 0.946452 0 1 ack 40 ------- 1 7.0 1.0 1 3
+ 0.946452 1 0 tcp 55 ------- 1 1.0 7.0 2 4
- 0.946452 1 0 tcp 55 ------- 1 1.0 7.0 2 4
+ 0.946452 1 0 tcp 55 ------- 1 1.0 7.0 3 5
+ 0.946452 1 0 tcp 55 ------- 1 1.0 7.0 4 6
- 0.946672 1 0 tcp 55 ------- 1 1.0 7.0 3 5
- 0.946892 1 0 tcp 55 ------- 1 1.0 7.0 4 6
r 0.956672 1 0 tcp 55 ------- 1 1.0 7.0 2 4
+ 0.956672 0 3 tcp 55 ------- 1 1.0 7.0 2 4
- 0.956672 0 3 tcp 55 ------- 1 1.0 7.0 2 4
r 0.956892 1 0 tcp 55 ------- 1 1.0 7.0 3 5
+ 0.956892 0 3 tcp 55 ------- 1 1.0 7.0 3 5
r 0.957112 1 0 tcp 55 ------- 1 1.0 7.0 4 6
+ 0.957112 0 3 tcp 55 ------- 1 1.0 7.0 4 6
- 0.957112 0 3 tcp 55 ------- 1 1.0 7.0 3 5
- 0.957552 0 3 tcp 55 ------- 1 1.0 7.0 4 6
r 0.977112 0 3 tcp 55 ------- 1 1.0 7.0 2 4
h 0.977112 3 9 tcp 55 ------- 1 1.0 7.0 2 4
r 0.977552 0 3 tcp 55 ------- 1 1.0 7.0 3 5
h 0.977552 3 9 tcp 55 ------- 1 1.0 7.0 3 5
r 0.977992 0 3 tcp 55 ------- 1 1.0 7.0 4 6
h 0.977992 3 9 tcp 55 ------- 1 1.0 7.0 4 6
+ 1.017112 3 9 tcp 55 ------- 1 1.0 7.0 2 4
- 1.017112 3 9 tcp 55 ------- 1 1.0 7.0 2 4
+ 1.017552 3 9 tcp 55 ------- 1 1.0 7.0 3 5
+ 1.017992 3 9 tcp 55 ------- 1 1.0 7.0 4 6
- 1.018378 3 9 tcp 55 ------- 1 1.0 7.0 3 5
- 1.019644 3 9 tcp 55 ------- 1 1.0 7.0 4 6
r 1.058194 9 7 tcp 55 ------- 1 1.0 7.0 2 4
h 1.058194 7 9 ack 40 ------- 1 7.0 1.0 2 7
r 1.05946 9 7 tcp 55 ------- 1 1.0 7.0 3 5
h 1.05946 7 9 ack 40 ------- 1 7.0 1.0 3 8
r 1.060726 9 7 tcp 55 ------- 1 1.0 7.0 4 6
h 1.060726 7 9 ack 40 ------- 1 7.0 1.0 4 9
+ 1.098194 7 9 ack 40 ------- 1 7.0 1.0 2 7
- 1.098194 7 9 ack 40 ------- 1 7.0 1.0 2 7
+ 1.09946 7 9 ack 40 ------- 1 7.0 1.0 3 8
- 1.09946 7 9 ack 40 ------- 1 7.0 1.0 3 8
+ 1.100726 7 9 ack 40 ------- 1 7.0 1.0 4 9
- 1.100726 7 9 ack 40 ------- 1 7.0 1.0 4 9
r 1.139198 9 3 ack 40 ------- 1 7.0 1.0 2 7
+ 1.139198 3 0 ack 40 ------- 1 7.0 1.0 2 7
- 1.139198 3 0 ack 40 ------- 1 7.0 1.0 2 7
r 1.140464 9 3 ack 40 ------- 1 7.0 1.0 3 8
+ 1.140464 3 0 ack 40 ------- 1 7.0 1.0 3 8
- 1.140464 3 0 ack 40 ------- 1 7.0 1.0 3 8
r 1.14173 9 3 ack 40 ------- 1 7.0 1.0 4 9
+ 1.14173 3 0 ack 40 ------- 1 7.0 1.0 4 9
- 1.14173 3 0 ack 40 ------- 1 7.0 1.0 4 9
r 1.159518 3 0 ack 40 ------- 1 7.0 1.0 2 7
+ 1.159518 0 1 ack 40 ------- 1 7.0 1.0 2 7
- 1.159518 0 1 ack 40 ------- 1 7.0 1.0 2 7
r 1.160784 3 0 ack 40 ------- 1 7.0 1.0 3 8
+ 1.160784 0 1 ack 40 ------- 1 7.0 1.0 3 8
- 1.160784 0 1 ack 40 ------- 1 7.0 1.0 3 8
r 1.16205 3 0 ack 40 ------- 1 7.0 1.0 4 9
+ 1.16205 0 1 ack 40 ------- 1 7.0 1.0 4 9
- 1.16205 0 1 ack 40 ------- 1 7.0 1.0 4 9
r 1.169678 0 1 ack 40 ------- 1 7.0 1.0 2 7
+ 1.169678 1 0 tcp 55 ------- 1 1.0 7.0 5 10
- 1.169678 1 0 tcp 55 ------- 1 1.0 7.0 5 10
r 1.170944 0 1 ack 40 ------- 1 7.0 1.0 3 8
+ 1.170944 1 0 tcp 55 ------- 1 1.0 7.0 6 11
- 1.170944 1 0 tcp 55 ------- 1 1.0 7.0 6 11
r 1.17221 0 1 ack 40 ------- 1 7.0 1.0 4 9
+ 1.17221 1 0 tcp 55 ------- 1 1.0 7.0 7 12
- 1.17221 1 0 tcp 55 ------- 1 1.0 7.0 7 12
r 1.179898 1 0 tcp 55 ------- 1 1.0 7.0 5 10
+ 1.179898 0 3 tcp 55 ------- 1 1.0 7.0 5 10
- 1.179898 0 3 tcp 55 ------- 1 1.0 7.0 5 10
r 1.181164 1 0 tcp 55 ------- 1 1.0 7.0 6 11
+ 1.181164 0 3 tcp 55 ------- 1 1.0 7.0 6 11
- 1.181164 0 3 tcp 55 ------- 1 1.0 7.0 6 11
r 1.18243 1 0 tcp 55 ------- 1 1.0 7.0 7 12
+ 1.18243 0 3 tcp 55 ------- 1 1.0 7.0 7 12
- 1.18243 0 3 tcp 55 ------- 1 1.0 7.0 7 12
r 1.200338 0 3 tcp 55 ------- 1 1.0 7.0 5 10
h 1.200338 3 9 tcp 55 ------- 1 1.0 7.0 5 10
r 1.201604 0 3 tcp 55 ------- 1 1.0 7.0 6 11
h 1.201604 3 9 tcp 55 ------- 1 1.0 7.0 6 11
r 1.20287 0 3 tcp 55 ------- 1 1.0 7.0 7 12
h 1.20287 3 9 tcp 55 ------- 1 1.0 7.0 7 12
+ 1.240338 3 9 tcp 55 ------- 1 1.0 7.0 5 10
- 1.240338 3 9 tcp 55 ------- 1 1.0 7.0 5 10
+ 1.241604 3 9 tcp 55 ------- 1 1.0 7.0 6 11
- 1.241604 3 9 tcp 55 ------- 1 1.0 7.0 6 11
+ 1.24287 3 9 tcp 55 ------- 1 1.0 7.0 7 12
- 1.24287 3 9 tcp 55 ------- 1 1.0 7.0 7 12
r 1.28142 9 7 tcp 55 ------- 1 1.0 7.0 5 10
h 1.28142 7 9 ack 40 ------- 1 7.0 1.0 5 13
r 1.282686 9 7 tcp 55 ------- 1 1.0 7.0 6 11
h 1.282686 7 9 ack 40 ------- 1 7.0 1.0 6 14
r 1.283952 9 7 tcp 55 ------- 1 1.0 7.0 7 12
h 1.283952 7 9 ack 40 ------- 1 7.0 1.0 7 15
+ 1.321421 7 9 ack 40 ------- 1 7.0 1.0 5 13
- 1.321421 7 9 ack 40 ------- 1 7.0 1.0 5 13
+ 1.322686 7 9 ack 40 ------- 1 7.0 1.0 6 14
- 1.322686 7 9 ack 40 ------- 1 7.0 1.0 6 14
+ 1.323952 7 9 ack 40 ------- 1 7.0 1.0 7 15
- 1.323952 7 9 ack 40 ------- 1 7.0 1.0 7 15
r 1.362424 9 3 ack 40 ------- 1 7.0 1.0 5 13
+ 1.362424 3 0 ack 40 ------- 1 7.0 1.0 5 13
- 1.362424 3 0 ack 40 ------- 1 7.0 1.0 5 13
r 1.36369 9 3 ack 40 ------- 1 7.0 1.0 6 14
+ 1.36369 3 0 ack 40 ------- 1 7.0 1.0 6 14
- 1.36369 3 0 ack 40 ------- 1 7.0 1.0 6 14
r 1.364956 9 3 ack 40 ------- 1 7.0 1.0 7 15
+ 1.364956 3 0 ack 40 ------- 1 7.0 1.0 7 15
- 1.364956 3 0 ack 40 ------- 1 7.0 1.0 7 15
r 1.382744 3 0 ack 40 ------- 1 7.0 1.0 5 13
+ 1.382744 0 1 ack 40 ------- 1 7.0 1.0 5 13
- 1.382744 0 1 ack 40 ------- 1 7.0 1.0 5 13
r 1.38401 3 0 ack 40 ------- 1 7.0 1.0 6 14
+ 1.38401 0 1 ack 40 ------- 1 7.0 1.0 6 14
- 1.38401 0 1 ack 40 ------- 1 7.0 1.0 6 14
r 1.385276 3 0 ack 40 ------- 1 7.0 1.0 7 15
+ 1.385276 0 1 ack 40 ------- 1 7.0 1.0 7 15
- 1.385276 0 1 ack 40 ------- 1 7.0 1.0 7 15
r 1.392904 0 1 ack 40 ------- 1 7.0 1.0 5 13
+ 1.392904 1 0 tcp 55 ------- 1 1.0 7.0 8 16
- 1.392904 1 0 tcp 55 ------- 1 1.0 7.0 8 16
+ 1.392904 1 0 tcp 55 ------- 1 1.0 7.0 9 17
- 1.393124 1 0 tcp 55 ------- 1 1.0 7.0 9 17
r 1.39417 0 1 ack 40 ------- 1 7.0 1.0 6 14
+ 1.39417 1 0 tcp 55 ------- 1 1.0 7.0 10 18
- 1.39417 1 0 tcp 55 ------- 1 1.0 7.0 10 18
+ 1.39417 1 0 tcp 55 ------- 1 1.0 7.0 11 19
- 1.39439 1 0 tcp 55 ------- 1 1.0 7.0 11 19
r 1.395436 0 1 ack 40 ------- 1 7.0 1.0 7 15
+ 1.395436 1 0 tcp 55 ------- 1 1.0 7.0 12 20
- 1.395436 1 0 tcp 55 ------- 1 1.0 7.0 12 20
+ 1.395436 1 0 tcp 55 ------- 1 1.0 7.0 13 21
- 1.395656 1 0 tcp 55 ------- 1 1.0 7.0 13 21
r 1.403124 1 0 tcp 55 ------- 1 1.0 7.0 8 16
+ 1.403124 0 3 tcp 55 ------- 1 1.0 7.0 8 16
- 1.403124 0 3 tcp 55 ------- 1 1.0 7.0 8 16
r 1.403344 1 0 tcp 55 ------- 1 1.0 7.0 9 17
+ 1.403344 0 3 tcp 55 ------- 1 1.0 7.0 9 17
- 1.403564 0 3 tcp 55 ------- 1 1.0 7.0 9 17
r 1.40439 1 0 tcp 55 ------- 1 1.0 7.0 10 18
+ 1.40439 0 3 tcp 55 ------- 1 1.0 7.0 10 18
- 1.40439 0 3 tcp 55 ------- 1 1.0 7.0 10 18
r 1.40461 1 0 tcp 55 ------- 1 1.0 7.0 11 19
+ 1.40461 0 3 tcp 55 ------- 1 1.0 7.0 11 19
- 1.40483 0 3 tcp 55 ------- 1 1.0 7.0 11 19
r 1.405656 1 0 tcp 55 ------- 1 1.0 7.0 12 20
+ 1.405656 0 3 tcp 55 ------- 1 1.0 7.0 12 20
- 1.405656 0 3 tcp 55 ------- 1 1.0 7.0 12 20
r 1.405876 1 0 tcp 55 ------- 1 1.0 7.0 13 21
+ 1.405876 0 3 tcp 55 ------- 1 1.0 7.0 13 21
- 1.406096 0 3 tcp 55 ------- 1 1.0 7.0 13 21
r 1.423564 0 3 tcp 55 ------- 1 1.0 7.0 8 16
h 1.423564 3 9 tcp 55 ------- 1 1.0 7.0 8 16
r 1.424004 0 3 tcp 55 ------- 1 1.0 7.0 9 17
h 1.424004 3 9 tcp 55 ------- 1 1.0 7.0 9 17
r 1.42483 0 3 tcp 55 ------- 1 1.0 7.0 10 18
h 1.42483 3 9 tcp 55 ------- 1 1.0 7.0 10 18
r 1.42527 0 3 tcp 55 ------- 1 1.0 7.0 11 19
h 1.42527 3 9 tcp 55 ------- 1 1.0 7.0 11 19
r 1.426096 0 3 tcp 55 ------- 1 1.0 7.0 12 20
h 1.426096 3 9 tcp 55 ------- 1 1.0 7.0 12 20
r 1.426536 0 3 tcp 55 ------- 1 1.0 7.0 13 21
h 1.426536 3 9 tcp 55 ------- 1 1.0 7.0 13 21
+ 1.463564 3 9 tcp 55 ------- 1 1.0 7.0 8 16
- 1.463564 3 9 tcp 55 ------- 1 1.0 7.0 8 16
+ 1.464004 3 9 tcp 55 ------- 1 1.0 7.0 9 17
+ 1.46483 3 9 tcp 55 ------- 1 1.0 7.0 10 18
- 1.46483 3 9 tcp 55 ------- 1 1.0 7.0 9 17
+ 1.46527 3 9 tcp 55 ------- 1 1.0 7.0 11 19
+ 1.466096 3 9 tcp 55 ------- 1 1.0 7.0 12 20
- 1.466096 3 9 tcp 55 ------- 1 1.0 7.0 10 18
+ 1.466536 3 9 tcp 55 ------- 1 1.0 7.0 13 21
- 1.467361 3 9 tcp 55 ------- 1 1.0 7.0 11 19
- 1.468627 3 9 tcp 55 ------- 1 1.0 7.0 12 20
- 1.469893 3 9 tcp 55 ------- 1 1.0 7.0 13 21
r 1.504647 9 7 tcp 55 ------- 1 1.0 7.0 8 16
h 1.504647 7 9 ack 40 ------- 1 7.0 1.0 8 22
r 1.505912 9 7 tcp 55 ------- 1 1.0 7.0 9 17
h 1.505912 7 9 ack 40 ------- 1 7.0 1.0 9 23
r 1.507178 9 7 tcp 55 ------- 1 1.0 7.0 10 18
h 1.507178 7 9 ack 40 ------- 1 7.0 1.0 10 24
r 1.508443 9 7 tcp 55 ------- 1 1.0 7.0 11 19
h 1.508443 7 9 ack 40 ------- 1 7.0 1.0 11 25
r 1.509709 9 7 tcp 55 ------- 1 1.0 7.0 12 20
h 1.509709 7 9 ack 40 ------- 1 7.0 1.0 12 26
r 1.510975 9 7 tcp 55 ------- 1 1.0 7.0 13 21
h 1.510975 7 9 ack 40 ------- 1 7.0 1.0 13 27
+ 1.544647 7 9 ack 40 ------- 1 7.0 1.0 8 22
- 1.544647 7 9 ack 40 ------- 1 7.0 1.0 8 22
+ 1.545912 7 9 ack 40 ------- 1 7.0 1.0 9 23
- 1.545912 7 9 ack 40 ------- 1 7.0 1.0 9 23
+ 1.547178 7 9 ack 40 ------- 1 7.0 1.0 10 24
- 1.547178 7 9 ack 40 ------- 1 7.0 1.0 10 24
+ 1.548443 7 9 ack 40 ------- 1 7.0 1.0 11 25
- 1.548443 7 9 ack 40 ------- 1 7.0 1.0 11 25
+ 1.549709 7 9 ack 40 ------- 1 7.0 1.0 12 26
- 1.549709 7 9 ack 40 ------- 1 7.0 1.0 12 26
+ 1.550975 7 9 ack 40 ------- 1 7.0 1.0 13 27
- 1.550975 7 9 ack 40 ------- 1 7.0 1.0 13 27
r 1.585651 9 3 ack 40 ------- 1 7.0 1.0 8 22
+ 1.585651 3 0 ack 40 ------- 1 7.0 1.0 8 22
- 1.585651 3 0 ack 40 ------- 1 7.0 1.0 8 22
r 1.586916 9 3 ack 40 ------- 1 7.0 1.0 9 23
+ 1.586916 3 0 ack 40 ------- 1 7.0 1.0 9 23
- 1.586916 3 0 ack 40 ------- 1 7.0 1.0 9 23
r 1.588182 9 3 ack 40 ------- 1 7.0 1.0 10 24
+ 1.588182 3 0 ack 40 ------- 1 7.0 1.0 10 24
- 1.588182 3 0 ack 40 ------- 1 7.0 1.0 10 24
r 1.589447 9 3 ack 40 ------- 1 7.0 1.0 11 25
+ 1.589447 3 0 ack 40 ------- 1 7.0 1.0 11 25
- 1.589447 3 0 ack 40 ------- 1 7.0 1.0 11 25
r 1.590713 9 3 ack 40 ------- 1 7.0 1.0 12 26
+ 1.590713 3 0 ack 40 ------- 1 7.0 1.0 12 26
- 1.590713 3 0 ack 40 ------- 1 7.0 1.0 12 26
r 1.591979 9 3 ack 40 ------- 1 7.0 1.0 13 27
+ 1.591979 3 0 ack 40 ------- 1 7.0 1.0 13 27
- 1.591979 3 0 ack 40 ------- 1 7.0 1.0 13 27
r 1.605971 3 0 ack 40 ------- 1 7.0 1.0 8 22
+ 1.605971 0 1 ack 40 ------- 1 7.0 1.0 8 22
- 1.605971 0 1 ack 40 ------- 1 7.0 1.0 8 22
r 1.607236 3 0 ack 40 ------- 1 7.0 1.0 9 23
+ 1.607236 0 1 ack 40 ------- 1 7.0 1.0 9 23
- 1.607236 0 1 ack 40 ------- 1 7.0 1.0 9 23
r 1.608502 3 0 ack 40 ------- 1 7.0 1.0 10 24
+ 1.608502 0 1 ack 40 ------- 1 7.0 1.0 10 24
- 1.608502 0 1 ack 40 ------- 1 7.0 1.0 10 24
r 1.609767 3 0 ack 40 ------- 1 7.0 1.0 11 25
+ 1.609767 0 1 ack 40 ------- 1 7.0 1.0 11 25
- 1.609767 0 1 ack 40 ------- 1 7.0 1.0 11 25
r 1.611033 3 0 ack 40 ------- 1 7.0 1.0 12 26
+ 1.611033 0 1 ack 40 ------- 1 7.0 1.0 12 26
- 1.611033 0 1 ack 40 ------- 1 7.0 1.0 12 26
r 1.612299 3 0 ack 40 ------- 1 7.0 1.0 13 27
+ 1.612299 0 1 ack 40 ------- 1 7.0 1.0 13 27
- 1.612299 0 1 ack 40 ------- 1 7.0 1.0 13 27
r 1.616131 0 1 ack 40 ------- 1 7.0 1.0 8 22
+ 1.616131 1 0 tcp 55 ------- 1 1.0 7.0 14 28
- 1.616131 1 0 tcp 55 ------- 1 1.0 7.0 14 28
r 1.617396 0 1 ack 40 ------- 1 7.0 1.0 9 23
+ 1.617396 1 0 tcp 55 ------- 1 1.0 7.0 15 29
- 1.617396 1 0 tcp 55 ------- 1 1.0 7.0 15 29
r 1.618662 0 1 ack 40 ------- 1 7.0 1.0 10 24
+ 1.618662 1 0 tcp 55 ------- 1 1.0 7.0 16 30
- 1.618662 1 0 tcp 55 ------- 1 1.0 7.0 16 30
r 1.619927 0 1 ack 40 ------- 1 7.0 1.0 11 25
+ 1.619927 1 0 tcp 55 ------- 1 1.0 7.0 17 31
- 1.619927 1 0 tcp 55 ------- 1 1.0 7.0 17 31
r 1.621193 0 1 ack 40 ------- 1 7.0 1.0 12 26
+ 1.621193 1 0 tcp 55 ------- 1 1.0 7.0 18 32
- 1.621193 1 0 tcp 55 ------- 1 1.0 7.0 18 32
r 1.622459 0 1 ack 40 ------- 1 7.0 1.0 13 27
+ 1.622459 1 0 tcp 55 ------- 1 1.0 7.0 19 33
- 1.622459 1 0 tcp 55 ------- 1 1.0 7.0 19 33
r 1.626351 1 0 tcp 55 ------- 1 1.0 7.0 14 28
+ 1.626351 0 3 tcp 55 ------- 1 1.0 7.0 14 28
- 1.626351 0 3 tcp 55 ------- 1 1.0 7.0 14 28
r 1.627616 1 0 tcp 55 ------- 1 1.0 7.0 15 29
+ 1.627616 0 3 tcp 55 ------- 1 1.0 7.0 15 29
- 1.627616 0 3 tcp 55 ------- 1 1.0 7.0 15 29
r 1.628882 1 0 tcp 55 ------- 1 1.0 7.0 16 30
+ 1.628882 0 3 tcp 55 ------- 1 1.0 7.0 16 30
- 1.628882 0 3 tcp 55 ------- 1 1.0 7.0 16 30
r 1.630147 1 0 tcp 55 ------- 1 1.0 7.0 17 31
+ 1.630147 0 3 tcp 55 ------- 1 1.0 7.0 17 31
- 1.630147 0 3 tcp 55 ------- 1 1.0 7.0 17 31
r 1.631413 1 0 tcp 55 ------- 1 1.0 7.0 18 32
+ 1.631413 0 3 tcp 55 ------- 1 1.0 7.0 18 32
- 1.631413 0 3 tcp 55 ------- 1 1.0 7.0 18 32
r 1.632679 1 0 tcp 55 ------- 1 1.0 7.0 19 33
+ 1.632679 0 3 tcp 55 ------- 1 1.0 7.0 19 33
- 1.632679 0 3 tcp 55 ------- 1 1.0 7.0 19 33
r 1.646791 0 3 tcp 55 ------- 1 1.0 7.0 14 28
h 1.646791 3 9 tcp 55 ------- 1 1.0 7.0 14 28
r 1.648056 0 3 tcp 55 ------- 1 1.0 7.0 15 29
h 1.648056 3 9 tcp 55 ------- 1 1.0 7.0 15 29
r 1.649322 0 3 tcp 55 ------- 1 1.0 7.0 16 30
h 1.649322 3 9 tcp 55 ------- 1 1.0 7.0 16 30
r 1.650587 0 3 tcp 55 ------- 1 1.0 7.0 17 31
h 1.650587 3 9 tcp 55 ------- 1 1.0 7.0 17 31
r 1.651853 0 3 tcp 55 ------- 1 1.0 7.0 18 32
h 1.651853 3 9 tcp 55 ------- 1 1.0 7.0 18 32
r 1.653119 0 3 tcp 55 ------- 1 1.0 7.0 19 33
h 1.653119 3 9 tcp 55 ------- 1 1.0 7.0 19 33
+ 1.686791 3 9 tcp 55 ------- 1 1.0 7.0 14 28
- 1.686791 3 9 tcp 55 ------- 1 1.0 7.0 14 28
+ 1.688056 3 9 tcp 55 ------- 1 1.0 7.0 15 29
- 1.688056 3 9 tcp 55 ------- 1 1.0 7.0 15 29
+ 1.689322 3 9 tcp 55 ------- 1 1.0 7.0 16 30
- 1.689322 3 9 tcp 55 ------- 1 1.0 7.0 16 30
+ 1.690587 3 9 tcp 55 ------- 1 1.0 7.0 17 31
- 1.690587 3 9 tcp 55 ------- 1 1.0 7.0 17 31
+ 1.691853 3 9 tcp 55 ------- 1 1.0 7.0 18 32
- 1.691853 3 9 tcp 55 ------- 1 1.0 7.0 18 32
+ 1.693119 3 9 tcp 55 ------- 1 1.0 7.0 19 33
- 1.693119 3 9 tcp 55 ------- 1 1.0 7.0 19 33
r 1.727873 9 7 tcp 55 ------- 1 1.0 7.0 14 28
h 1.727873 7 9 ack 40 ------- 1 7.0 1.0 14 34
r 1.729138 9 7 tcp 55 ------- 1 1.0 7.0 15 29
h 1.729138 7 9 ack 40 ------- 1 7.0 1.0 15 35
r 1.730404 9 7 tcp 55 ------- 1 1.0 7.0 16 30
h 1.730404 7 9 ack 40 ------- 1 7.0 1.0 16 36
r 1.73167 9 7 tcp 55 ------- 1 1.0 7.0 17 31
h 1.73167 7 9 ack 40 ------- 1 7.0 1.0 17 37
r 1.732935 9 7 tcp 55 ------- 1 1.0 7.0 18 32
h 1.732935 7 9 ack 40 ------- 1 7.0 1.0 18 38
r 1.734201 9 7 tcp 55 ------- 1 1.0 7.0 19 33
h 1.734201 7 9 ack 40 ------- 1 7.0 1.0 19 39
+ 1.767873 7 9 ack 40 ------- 1 7.0 1.0 14 34
- 1.767873 7 9 ack 40 ------- 1 7.0 1.0 14 34
+ 1.769138 7 9 ack 40 ------- 1 7.0 1.0 15 35
- 1.769138 7 9 ack 40 ------- 1 7.0 1.0 15 35
+ 1.770404 7 9 ack 40 ------- 1 7.0 1.0 16 36
- 1.770404 7 9 ack 40 ------- 1 7.0 1.0 16 36
+ 1.77167 7 9 ack 40 ------- 1 7.0 1.0 17 37
- 1.77167 7 9 ack 40 ------- 1 7.0 1.0 17 37
+ 1.772935 7 9 ack 40 ------- 1 7.0 1.0 18 38
- 1.772935 7 9 ack 40 ------- 1 7.0 1.0 18 38
+ 1.774201 7 9 ack 40 ------- 1 7.0 1.0 19 39
- 1.774201 7 9 ack 40 ------- 1 7.0 1.0 19 39
r 1.808877 9 3 ack 40 ------- 1 7.0 1.0 14 34
+ 1.808877 3 0 ack 40 ------- 1 7.0 1.0 14 34
- 1.808877 3 0 ack 40 ------- 1 7.0 1.0 14 34
r 1.810142 9 3 ack 40 ------- 1 7.0 1.0 15 35
+ 1.810142 3 0 ack 40 ------- 1 7.0 1.0 15 35
- 1.810142 3 0 ack 40 ------- 1 7.0 1.0 15 35
r 1.811408 9 3 ack 40 ------- 1 7.0 1.0 16 36
+ 1.811408 3 0 ack 40 ------- 1 7.0 1.0 16 36
- 1.811408 3 0 ack 40 ------- 1 7.0 1.0 16 36
r 1.812674 9 3 ack 40 ------- 1 7.0 1.0 17 37
+ 1.812674 3 0 ack 40 ------- 1 7.0 1.0 17 37
- 1.812674 3 0 ack 40 ------- 1 7.0 1.0 17 37
r 1.813939 9 3 ack 40 ------- 1 7.0 1.0 18 38
+ 1.813939 3 0 ack 40 ------- 1 7.0 1.0 18 38
- 1.813939 3 0 ack 40 ------- 1 7.0 1.0 18 38
r 1.815205 9 3 ack 40 ------- 1 7.0 1.0 19 39
+ 1.815205 3 0 ack 40 ------- 1 7.0 1.0 19 39
- 1.815205 3 0 ack 40 ------- 1 7.0 1.0 19 39
r 1.829197 3 0 ack 40 ------- 1 7.0 1.0 14 34
+ 1.829197 0 1 ack 40 ------- 1 7.0 1.0 14 34
- 1.829197 0 1 ack 40 ------- 1 7.0 1.0 14 34
r 1.830462 3 0 ack 40 ------- 1 7.0 1.0 15 35
+ 1.830462 0 1 ack 40 ------- 1 7.0 1.0 15 35
- 1.830462 0 1 ack 40 ------- 1 7.0 1.0 15 35
r 1.831728 3 0 ack 40 ------- 1 7.0 1.0 16 36
+ 1.831728 0 1 ack 40 ------- 1 7.0 1.0 16 36
- 1.831728 0 1 ack 40 ------- 1 7.0 1.0 16 36
r 1.832994 3 0 ack 40 ------- 1 7.0 1.0 17 37
+ 1.832994 0 1 ack 40 ------- 1 7.0 1.0 17 37
- 1.832994 0 1 ack 40 ------- 1 7.0 1.0 17 37
r 1.834259 3 0 ack 40 ------- 1 7.0 1.0 18 38
+ 1.834259 0 1 ack 40 ------- 1 7.0 1.0 18 38
- 1.834259 0 1 ack 40 ------- 1 7.0 1.0 18 38
r 1.835525 3 0 ack 40 ------- 1 7.0 1.0 19 39
+ 1.835525 0 1 ack 40 ------- 1 7.0 1.0 19 39
- 1.835525 0 1 ack 40 ------- 1 7.0 1.0 19 39
r 1.839357 0 1 ack 40 ------- 1 7.0 1.0 14 34
+ 1.839357 1 0 tcp 55 ------- 1 1.0 7.0 20 40
- 1.839357 1 0 tcp 55 ------- 1 1.0 7.0 20 40
+ 1.839357 1 0 tcp 55 ------- 1 1.0 7.0 21 41
- 1.839577 1 0 tcp 55 ------- 1 1.0 7.0 21 41
r 1.840622 0 1 ack 40 ------- 1 7.0 1.0 15 35
+ 1.840622 1 0 tcp 55 ------- 1 1.0 7.0 22 42
- 1.840622 1 0 tcp 55 ------- 1 1.0 7.0 22 42
+ 1.840622 1 0 tcp 55 ------- 1 1.0 7.0 23 43
- 1.840842 1 0 tcp 55 ------- 1 1.0 7.0 23 43
r 1.841888 0 1 ack 40 ------- 1 7.0 1.0 16 36
+ 1.841888 1 0 tcp 55 ------- 1 1.0 7.0 24 44
- 1.841888 1 0 tcp 55 ------- 1 1.0 7.0 24 44
+ 1.841888 1 0 tcp 55 ------- 1 1.0 7.0 25 45
- 1.842108 1 0 tcp 55 ------- 1 1.0 7.0 25 45
r 1.843154 0 1 ack 40 ------- 1 7.0 1.0 17 37
+ 1.843154 1 0 tcp 55 ------- 1 1.0 7.0 26 46
- 1.843154 1 0 tcp 55 ------- 1 1.0 7.0 26 46
+ 1.843154 1 0 tcp 55 ------- 1 1.0 7.0 27 47
- 1.843374 1 0 tcp 55 ------- 1 1.0 7.0 27 47
r 1.844419 0 1 ack 40 ------- 1 7.0 1.0 18 38
+ 1.844419 1 0 tcp 55 ------- 1 1.0 7.0 28 48
- 1.844419 1 0 tcp 55 ------- 1 1.0 7.0 28 48
+ 1.844419 1 0 tcp 55 ------- 1 1.0 7.0 29 49
- 1.844639 1 0 tcp 55 ------- 1 1.0 7.0 29 49
r 1.845685 0 1 ack 40 ------- 1 7.0 1.0 19 39
+ 1.845685 1 0 tcp 55 ------- 1 1.0 7.0 30 50
- 1.845685 1 0 tcp 55 ------- 1 1.0 7.0 30 50
+ 1.845685 1 0 tcp 55 ------- 1 1.0 7.0 31 51
- 1.845905 1 0 tcp 55 ------- 1 1.0 7.0 31 51
r 1.849577 1 0 tcp 55 ------- 1 1.0 7.0 20 40
+ 1.849577 0 3 tcp 55 ------- 1 1.0 7.0 20 40
- 1.849577 0 3 tcp 55 ------- 1 1.0 7.0 20 40
r 1.849797 1 0 tcp 55 ------- 1 1.0 7.0 21 41
+ 1.849797 0 3 tcp 55 ------- 1 1.0 7.0 21 41
- 1.850017 0 3 tcp 55 ------- 1 1.0 7.0 21 41
r 1.850842 1 0 tcp 55 ------- 1 1.0 7.0 22 42
+ 1.850842 0 3 tcp 55 ------- 1 1.0 7.0 22 42
- 1.850842 0 3 tcp 55 ------- 1 1.0 7.0 22 42
r 1.851062 1 0 tcp 55 ------- 1 1.0 7.0 23 43
+ 1.851062 0 3 tcp 55 ------- 1 1.0 7.0 23 43
- 1.851282 0 3 tcp 55 ------- 1 1.0 7.0 23 43
r 1.852108 1 0 tcp 55 ------- 1 1.0 7.0 24 44
+ 1.852108 0 3 tcp 55 ------- 1 1.0 7.0 24 44
- 1.852108 0 3 tcp 55 ------- 1 1.0 7.0 24 44
r 1.852328 1 0 tcp 55 ------- 1 1.0 7.0 25 45
+ 1.852328 0 3 tcp 55 ------- 1 1.0 7.0 25 45
- 1.852548 0 3 tcp 55 ------- 1 1.0 7.0 25 45
r 1.853374 1 0 tcp 55 ------- 1 1.0 7.0 26 46
+ 1.853374 0 3 tcp 55 ------- 1 1.0 7.0 26 46
- 1.853374 0 3 tcp 55 ------- 1 1.0 7.0 26 46
r 1.853594 1 0 tcp 55 ------- 1 1.0 7.0 27 47
+ 1.853594 0 3 tcp 55 ------- 1 1.0 7.0 27 47
- 1.853814 0 3 tcp 55 ------- 1 1.0 7.0 27 47
r 1.854639 1 0 tcp 55 ------- 1 1.0 7.0 28 48
+ 1.854639 0 3 tcp 55 ------- 1 1.0 7.0 28 48
- 1.854639 0 3 tcp 55 ------- 1 1.0 7.0 28 48
r 1.854859 1 0 tcp 55 ------- 1 1.0 7.0 29 49
+ 1.854859 0 3 tcp 55 ------- 1 1.0 7.0 29 49
- 1.855079 0 3 tcp 55 ------- 1 1.0 7.0 29 49
r 1.855905 1 0 tcp 55 ------- 1 1.0 7.0 30 50
+ 1.855905 0 3 tcp 55 ------- 1 1.0 7.0 30 50
- 1.855905 0 3 tcp 55 ------- 1 1.0 7.0 30 50
r 1.856125 1 0 tcp 55 ------- 1 1.0 7.0 31 51
+ 1.856125 0 3 tcp 55 ------- 1 1.0 7.0 31 51
- 1.856345 0 3 tcp 55 ------- 1 1.0 7.0 31 51
r 1.870017 0 3 tcp 55 ------- 1 1.0 7.0 20 40
h 1.870017 3 9 tcp 55 ------- 1 1.0 7.0 20 40
r 1.870457 0 3 tcp 55 ------- 1 1.0 7.0 21 41
h 1.870457 3 9 tcp 55 ------- 1 1.0 7.0 21 41
r 1.871282 0 3 tcp 55 ------- 1 1.0 7.0 22 42
h 1.871282 3 9 tcp 55 ------- 1 1.0 7.0 22 42
r 1.871722 0 3 tcp 55 ------- 1 1.0 7.0 23 43
h 1.871722 3 9 tcp 55 ------- 1 1.0 7.0 23 43
r 1.872548 0 3 tcp 55 ------- 1 1.0 7.0 24 44
h 1.872548 3 9 tcp 55 ------- 1 1.0 7.0 24 44
r 1.872988 0 3 tcp 55 ------- 1 1.0 7.0 25 45
h 1.872988 3 9 tcp 55 ------- 1 1.0 7.0 25 45
r 1.873814 0 3 tcp 55 ------- 1 1.0 7.0 26 46
h 1.873814 3 9 tcp 55 ------- 1 1.0 7.0 26 46
r 1.874254 0 3 tcp 55 ------- 1 1.0 7.0 27 47
h 1.874254 3 9 tcp 55 ------- 1 1.0 7.0 27 47
r 1.875079 0 3 tcp 55 ------- 1 1.0 7.0 28 48
h 1.875079 3 9 tcp 55 ------- 1 1.0 7.0 28 48
r 1.875519 0 3 tcp 55 ------- 1 1.0 7.0 29 49
h 1.875519 3 9 tcp 55 ------- 1 1.0 7.0 29 49
r 1.876345 0 3 tcp 55 ------- 1 1.0 7.0 30 50
h 1.876345 3 9 tcp 55 ------- 1 1.0 7.0 30 50
r 1.876785 0 3 tcp 55 ------- 1 1.0 7.0 31 51
h 1.876785 3 9 tcp 55 ------- 1 1.0 7.0 31 51
+ 1.910017 3 9 tcp 55 ------- 1 1.0 7.0 20 40
- 1.910017 3 9 tcp 55 ------- 1 1.0 7.0 20 40
+ 1.910457 3 9 tcp 55 ------- 1 1.0 7.0 21 41
+ 1.911282 3 9 tcp 55 ------- 1 1.0 7.0 22 42
- 1.911282 3 9 tcp 55 ------- 1 1.0 7.0 21 41
+ 1.911722 3 9 tcp 55 ------- 1 1.0 7.0 23 43
+ 1.912548 3 9 tcp 55 ------- 1 1.0 7.0 24 44
- 1.912548 3 9 tcp 55 ------- 1 1.0 7.0 22 42
+ 1.912988 3 9 tcp 55 ------- 1 1.0 7.0 25 45
+ 1.913814 3 9 tcp 55 ------- 1 1.0 7.0 26 46
- 1.913814 3 9 tcp 55 ------- 1 1.0 7.0 23 43
+ 1.914254 3 9 tcp 55 ------- 1 1.0 7.0 27 47
+ 1.915079 3 9 tcp 55 ------- 1 1.0 7.0 28 48
- 1.915079 3 9 tcp 55 ------- 1 1.0 7.0 24 44
+ 1.915519 3 9 tcp 55 ------- 1 1.0 7.0 29 49
+ 1.916345 3 9 tcp 55 ------- 1 1.0 7.0 30 50
- 1.916345 3 9 tcp 55 ------- 1 1.0 7.0 25 45
+ 1.916785 3 9 tcp 55 ------- 1 1.0 7.0 31 51
- 1.91761 3 9 tcp 55 ------- 1 1.0 7.0 26 46
- 1.918876 3 9 tcp 55 ------- 1 1.0 7.0 27 47
- 1.920142 3 9 tcp 55 ------- 1 1.0 7.0 28 48
- 1.921407 3 9 tcp 55 ------- 1 1.0 7.0 29 49
- 1.922673 3 9 tcp 55 ------- 1 1.0 7.0 30 50
- 1.923939 3 9 tcp 55 ------- 1 1.0 7.0 31 51
r 1.951099 9 7 tcp 55 ------- 1 1.0 7.0 20 40
h 1.951099 7 9 ack 40 ------- 1 7.0 1.0 20 52
r 1.952364 9 7 tcp 55 ------- 1 1.0 7.0 21 41
h 1.952364 7 9 ack 40 ------- 1 7.0 1.0 21 53
r 1.95363 9 7 tcp 55 ------- 1 1.0 7.0 22 42
h 1.95363 7 9 ack 40 ------- 1 7.0 1.0 22 54
r 1.954896 9 7 tcp 55 ------- 1 1.0 7.0 23 43
h 1.954896 7 9 ack 40 ------- 1 7.0 1.0 23 55
r 1.956161 9 7 tcp 55 ------- 1 1.0 7.0 24 44
h 1.956161 7 9 ack 40 ------- 1 7.0 1.0 24 56
r 1.957427 9 7 tcp 55 ------- 1 1.0 7.0 25 45
h 1.957427 7 9 ack 40 ------- 1 7.0 1.0 25 57
r 1.958693 9 7 tcp 55 ------- 1 1.0 7.0 26 46
h 1.958693 7 9 ack 40 ------- 1 7.0 1.0 26 58
r 1.959958 9 7 tcp 55 ------- 1 1.0 7.0 27 47
h 1.959958 7 9 ack 40 ------- 1 7.0 1.0 27 59
r 1.961224 9 7 tcp 55 ------- 1 1.0 7.0 28 48
h 1.961224 7 9 ack 40 ------- 1 7.0 1.0 28 60
r 1.962489 9 7 tcp 55 ------- 1 1.0 7.0 29 49
h 1.962489 7 9 ack 40 ------- 1 7.0 1.0 29 61
r 1.963755 9 7 tcp 55 ------- 1 1.0 7.0 30 50
h 1.963755 7 9 ack 40 ------- 1 7.0 1.0 30 62
r 1.965021 9 7 tcp 55 ------- 1 1.0 7.0 31 51
h 1.965021 7 9 ack 40 ------- 1 7.0 1.0 31 63
+ 1.991099 7 9 ack 40 ------- 1 7.0 1.0 20 52
- 1.991099 7 9 ack 40 ------- 1 7.0 1.0 20 52
+ 1.992364 7 9 ack 40 ------- 1 7.0 1.0 21 53
- 1.992364 7 9 ack 40 ------- 1 7.0 1.0 21 53
+ 1.99363 7 9 ack 40 ------- 1 7.0 1.0 22 54
- 1.99363 7 9 ack 40 ------- 1 7.0 1.0 22 54
+ 1.994896 7 9 ack 40 ------- 1 7.0 1.0 23 55
- 1.994896 7 9 ack 40 ------- 1 7.0 1.0 23 55
+ 1.996161 7 9 ack 40 ------- 1 7.0 1.0 24 56
- 1.996161 7 9 ack 40 ------- 1 7.0 1.0 24 56
+ 1.997427 7 9 ack 40 ------- 1 7.0 1.0 25 57
- 1.997427 7 9 ack 40 ------- 1 7.0 1.0 25 57
+ 1.998693 7 9 ack 40 ------- 1 7.0 1.0 26 58
- 1.998693 7 9 ack 40 ------- 1 7.0 1.0 26 58
+ 1.999958 7 9 ack 40 ------- 1 7.0 1.0 27 59
- 1.999958 7 9 ack 40 ------- 1 7.0 1.0 27 59
+ 2.001224 7 9 ack 40 ------- 1 7.0 1.0 28 60
- 2.001224 7 9 ack 40 ------- 1 7.0 1.0 28 60
+ 2.002489 7 9 ack 40 ------- 1 7.0 1.0 29 61
- 2.002489 7 9 ack 40 ------- 1 7.0 1.0 29 61
+ 2.003755 7 9 ack 40 ------- 1 7.0 1.0 30 62
- 2.003755 7 9 ack 40 ------- 1 7.0 1.0 30 62
+ 2.005021 7 9 ack 40 ------- 1 7.0 1.0 31 63
- 2.005021 7 9 ack 40 ------- 1 7.0 1.0 31 63
r 2.032103 9 3 ack 40 ------- 1 7.0 1.0 20 52
+ 2.032103 3 0 ack 40 ------- 1 7.0 1.0 20 52
- 2.032103 3 0 ack 40 ------- 1 7.0 1.0 20 52
r 2.033368 9 3 ack 40 ------- 1 7.0 1.0 21 53
+ 2.033368 3 0 ack 40 ------- 1 7.0 1.0 21 53
- 2.033368 3 0 ack 40 ------- 1 7.0 1.0 21 53
r 2.034634 9 3 ack 40 ------- 1 7.0 1.0 22 54
+ 2.034634 3 0 ack 40 ------- 1 7.0 1.0 22 54
- 2.034634 3 0 ack 40 ------- 1 7.0 1.0 22 54
r 2.0359 9 3 ack 40 ------- 1 7.0 1.0 23 55
+ 2.0359 3 0 ack 40 ------- 1 7.0 1.0 23 55
- 2.0359 3 0 ack 40 ------- 1 7.0 1.0 23 55
r 2.037165 9 3 ack 40 ------- 1 7.0 1.0 24 56
+ 2.037165 3 0 ack 40 ------- 1 7.0 1.0 24 56
- 2.037165 3 0 ack 40 ------- 1 7.0 1.0 24 56
r 2.038431 9 3 ack 40 ------- 1 7.0 1.0 25 57
+ 2.038431 3 0 ack 40 ------- 1 7.0 1.0 25 57
- 2.038431 3 0 ack 40 ------- 1 7.0 1.0 25 57
r 2.039697 9 3 ack 40 ------- 1 7.0 1.0 26 58
+ 2.039697 3 0 ack 40 ------- 1 7.0 1.0 26 58
- 2.039697 3 0 ack 40 ------- 1 7.0 1.0 26 58
r 2.040962 9 3 ack 40 ------- 1 7.0 1.0 27 59
+ 2.040962 3 0 ack 40 ------- 1 7.0 1.0 27 59
- 2.040962 3 0 ack 40 ------- 1 7.0 1.0 27 59
r 2.042228 9 3 ack 40 ------- 1 7.0 1.0 28 60
+ 2.042228 3 0 ack 40 ------- 1 7.0 1.0 28 60
- 2.042228 3 0 ack 40 ------- 1 7.0 1.0 28 60
r 2.043493 9 3 ack 40 ------- 1 7.0 1.0 29 61
+ 2.043493 3 0 ack 40 ------- 1 7.0 1.0 29 61
- 2.043493 3 0 ack 40 ------- 1 7.0 1.0 29 61
r 2.044759 9 3 ack 40 ------- 1 7.0 1.0 30 62
+ 2.044759 3 0 ack 40 ------- 1 7.0 1.0 30 62
- 2.044759 3 0 ack 40 ------- 1 7.0 1.0 30 62
r 2.046025 9 3 ack 40 ------- 1 7.0 1.0 31 63
+ 2.046025 3 0 ack 40 ------- 1 7.0 1.0 31 63
- 2.046025 3 0 ack 40 ------- 1 7.0 1.0 31 63
r 2.052423 3 0 ack 40 ------- 1 7.0 1.0 20 52
+ 2.052423 0 1 ack 40 ------- 1 7.0 1.0 20 52
- 2.052423 0 1 ack 40 ------- 1 7.0 1.0 20 52
r 2.053688 3 0 ack 40 ------- 1 7.0 1.0 21 53
+ 2.053688 0 1 ack 40 ------- 1 7.0 1.0 21 53
- 2.053688 0 1 ack 40 ------- 1 7.0 1.0 21 53
r 2.054954 3 0 ack 40 ------- 1 7.0 1.0 22 54
+ 2.054954 0 1 ack 40 ------- 1 7.0 1.0 22 54
- 2.054954 0 1 ack 40 ------- 1 7.0 1.0 22 54
r 2.05622 3 0 ack 40 ------- 1 7.0 1.0 23 55
+ 2.05622 0 1 ack 40 ------- 1 7.0 1.0 23 55
- 2.05622 0 1 ack 40 ------- 1 7.0 1.0 23 55
r 2.057485 3 0 ack 40 ------- 1 7.0 1.0 24 56
+ 2.057485 0 1 ack 40 ------- 1 7.0 1.0 24 56
- 2.057485 0 1 ack 40 ------- 1 7.0 1.0 24 56
r 2.058751 3 0 ack 40 ------- 1 7.0 1.0 25 57
+ 2.058751 0 1 ack 40 ------- 1 7.0 1.0 25 57
- 2.058751 0 1 ack 40 ------- 1 7.0 1.0 25 57
r 2.060017 3 0 ack 40 ------- 1 7.0 1.0 26 58
+ 2.060017 0 1 ack 40 ------- 1 7.0 1.0 26 58
- 2.060017 0 1 ack 40 ------- 1 7.0 1.0 26 58
r 2.061282 3 0 ack 40 ------- 1 7.0 1.0 27 59
+ 2.061282 0 1 ack 40 ------- 1 7.0 1.0 27 59
- 2.061282 0 1 ack 40 ------- 1 7.0 1.0 27 59
r 2.062548 3 0 ack 40 ------- 1 7.0 1.0 28 60
+ 2.062548 0 1 ack 40 ------- 1 7.0 1.0 28 60
- 2.062548 0 1 ack 40 ------- 1 7.0 1.0 28 60
r 2.062583 0 1 ack 40 ------- 1 7.0 1.0 20 52
+ 2.062583 1 0 tcp 55 ------- 1 1.0 7.0 32 64
- 2.062583 1 0 tcp 55 ------- 1 1.0 7.0 32 64
r 2.063813 3 0 ack 40 ------- 1 7.0 1.0 29 61
+ 2.063813 0 1 ack 40 ------- 1 7.0 1.0 29 61
- 2.063813 0 1 ack 40 ------- 1 7.0 1.0 29 61
r 2.063848 0 1 ack 40 ------- 1 7.0 1.0 21 53
+ 2.063848 1 0 tcp 55 ------- 1 1.0 7.0 33 65
- 2.063848 1 0 tcp 55 ------- 1 1.0 7.0 33 65
r 2.065079 3 0 ack 40 ------- 1 7.0 1.0 30 62
+ 2.065079 0 1 ack 40 ------- 1 7.0 1.0 30 62
- 2.065079 0 1 ack 40 ------- 1 7.0 1.0 30 62
r 2.065114 0 1 ack 40 ------- 1 7.0 1.0 22 54
+ 2.065114 1 0 tcp 55 ------- 1 1.0 7.0 34 66
- 2.065114 1 0 tcp 55 ------- 1 1.0 7.0 34 66
r 2.066345 3 0 ack 40 ------- 1 7.0 1.0 31 63
+ 2.066345 0 1 ack 40 ------- 1 7.0 1.0 31 63
- 2.066345 0 1 ack 40 ------- 1 7.0 1.0 31 63
r 2.06638 0 1 ack 40 ------- 1 7.0 1.0 23 55
+ 2.06638 1 0 tcp 55 ------- 1 1.0 7.0 35 67
- 2.06638 1 0 tcp 55 ------- 1 1.0 7.0 35 67
r 2.067645 0 1 ack 40 ------- 1 7.0 1.0 24 56
+ 2.067645 1 0 tcp 55 ------- 1 1.0 7.0 36 68
- 2.067645 1 0 tcp 55 ------- 1 1.0 7.0 36 68
r 2.068911 0 1 ack 40 ------- 1 7.0 1.0 25 57
+ 2.068911 1 0 tcp 55 ------- 1 1.0 7.0 37 69
- 2.068911 1 0 tcp 55 ------- 1 1.0 7.0 37 69
r 2.070177 0 1 ack 40 ------- 1 7.0 1.0 26 58
+ 2.070177 1 0 tcp 55 ------- 1 1.0 7.0 38 70
- 2.070177 1 0 tcp 55 ------- 1 1.0 7.0 38 70
r 2.071442 0 1 ack 40 ------- 1 7.0 1.0 27 59
+ 2.071442 1 0 tcp 55 ------- 1 1.0 7.0 39 71
- 2.071442 1 0 tcp 55 ------- 1 1.0 7.0 39 71
r 2.072708 0 1 ack 40 ------- 1 7.0 1.0 28 60
+ 2.072708 1 0 tcp 55 ------- 1 1.0 7.0 40 72
- 2.072708 1 0 tcp 55 ------- 1 1.0 7.0 40 72
r 2.072803 1 0 tcp 55 ------- 1 1.0 7.0 32 64
+ 2.072803 0 3 tcp 55 ------- 1 1.0 7.0 32 64
- 2.072803 0 3 tcp 55 ------- 1 1.0 7.0 32 64
r 2.073973 0 1 ack 40 ------- 1 7.0 1.0 29 61
+ 2.073973 1 0 tcp 55 ------- 1 1.0 7.0 41 73