V -t * -v 1.0a5 -a 0
A -t * -n 1 -p 0 -o 0x7fffffff -c 30 -a 1
A -t * -h 1 -m 1073741823 -s 0
c -t * -i 1 -n Blue
c -t * -i 2 -n Red
n -t * -a 8 -s 8 -S UP -v hexagon -c Red -i Red
n -t * -a 4 -s 4 -S UP -v circle -c black -i black
n -t * -a 0 -s 0 -S UP -v circle -c black -i black
n -t * -a 5 -s 5 -S UP -v circle -c black -i black
n -t * -a 1 -s 1 -S UP -v circle -c black -i black
n -t * -a 6 -s 6 -S UP -v circle -c black -i black
n -t * -a 2 -s 2 -S UP -v circle -c black -i black
n -t * -a 7 -s 7 -S UP -v box -c Blue -i Blue
n -t * -a 3 -s 3 -S UP -v circle -c black -i black
l -t * -s 1 -d 0 -S UP -r 2000000 -D 0.01 -c black -o right-down
l -t * -s 2 -d 0 -S UP -r 2000000 -D 0.01 -c black -o right-up
l -t * -s 0 -d 3 -S UP -r 1000000 -D 0.02 -c black -o right
X -t * -n 9 -r 512Kb -D 40ms -o left
L -t * -s 9 -d 3 -o up
L -t * -s 9 -d 4 -o down
L -t * -s 9 -d 5 -o up
L -t * -s 9 -d 6 -o down
L -t * -s 9 -d 7 -o up
L -t * -s 9 -d 8 -o down
+ -t 0.5 -s 1 -d 0 -p tcp -e 55 -c 1 -i 0 -a 1 -x {1.0 7.0 0 ------- null}
- -t 0.5 -s 1 -d 0 -p tcp -e 55 -c 1 -i 0 -a 1 -x {1.0 7.0 0 ------- null}
h -t 0.5 -s 1 -d 0 -p tcp -e 55 -c 1 -i 0 -a 1 -x {1.0 7.0 -1 ------- null}
r -t 0.51022 -s 1 -d 0 -p tcp -e 55 -c 1 -i 0 -a 1 -x {1.0 7.0 0 ------- null}
+ -t 0.51022 -s 0 -d 3 -p tcp -e 55 -c 1 -i 0 -a 1 -x {1.0 7.0 0 ------- null}
- -t 0.51022 -s 0 -d 3 -p tcp -e 55 -c 1 -i 0 -a 1 -x {1.0 7.0 0 ------- null}
h -t 0.51022 -s 0 -d 3 -p tcp -e 55 -c 1 -i 0 -a 1 -x {1.0 7.0 -1 ------- null}
r -t 0.53066 -s 0 -d 3 -p tcp -e 55 -c 1 -i 0 -a 1 -x {1.0 7.0 0 ------- null}
h -t 0.53066 -s 3 -d 9 -p tcp -e 55 -c 1 -i 0 -a 1 -x {1.0 7.0 0 ------- null}
+ -t 0.57066 -s 3 -d 9 -p tcp -e 55 -c 1 -i 0 -a 1 -x {1.0 7.0 0 ------- null}
- -t 0.57066 -s 3 -d 9 -p tcp -e 55 -c 1 -i 0 -a 1 -x {1.0 7.0 0 ------- null}
h -t 0.57066 -s 3 -d 9 -p tcp -e 55 -c 1 -i 0 -a 1 -x {1.0 7.0 -1 ------- null}
r -t 0.611742125 -s 9 -d 7 -p tcp -e 55 -c 1 -i 0 -a 1 -x {1.0 7.0 0 ------- null}
h -t 0.611742125 -s 7 -d 9 -p ack -e 40 -c 1 -i 1 -a 1 -x {7.0 1.0 0 ------- null}
+ -t 0.651742125 -s 7 -d 9 -p ack -e 40 -c 1 -i 1 -a 1 -x {7.0 1.0 0 ------- null}
- -t 0.651742125 -s 7 -d 9 -p ack -e 40 -c 1 -i 1 -a 1 -x {7.0 1.0 0 ------- null}
h -t 0.651742125 -s 7 -d 9 -p ack -e 40 -c 1 -i 1 -a 1 -x {7.0 1.0 -1 ------- null}
r -t 0.692746125 -s 9 -d 3 -p ack -e 40 -c 1 -i 1 -a 1 -x {7.0 1.0 0 ------- null}
+ -t 0.692746125 -s 3 -d 0 -p ack -e 40 -c 1 -i 1 -a 1 -x {7.0 1.0 0 ------- null}
- -t 0.692746125 -s 3 -d 0 -p ack -e 40 -c 1 -i 1 -a 1 -x {7.0 1.0 0 ------- null}
h -t 0.692746125 -s 3 -d 0 -p ack -e 40 -c 1 -i 1 -a 1 -x {7.0 1.0 -1 ------- null}
r -t 0.713066125 -s 3 -d 0 -p ack -e 40 -c 1 -i 1 -a 1 -x {7.0 1.0 0 ------- null}
+ -t 0.713066125 -s 0 -d 1 -p ack -e 40 -c 1 -i 1 -a 1 -x {7.0 1.0 0 ------- null}
- -t 0.713066125 -s 0 -d 1 -p ack -e 40 -c 1 -i 1 -a 1 -x {7.0 1.0 0 ------- null}
h -t 0.713066125 -s 0 -d 1 -p ack -e 40 -c 1 -i 1 -a 1 -x {7.0 1.0 -1 ------- null}
r -t 0.723226125 -s 0 -d 1 -p ack -e 40 -c 1 -i 1 -a 1 -x {7.0 1.0 0 ------- null}
+ -t 0.723226125 -s 1 -d 0 -p tcp -e 55 -c 1 -i 2 -a 1 -x {1.0 7.0 1 ------- null}
- -t 0.723226125 -s 1 -d 0 -p tcp -e 55 -c 1 -i 2 -a 1 -x {1.0 7.0 1 ------- null}
h -t 0.723226125 -s 1 -d 0 -p tcp -e 55 -c 1 -i 2 -a 1 -x {1.0 7.0 -1 ------- null}
r -t 0.733446125 -s 1 -d 0 -p tcp -e 55 -c 1 -i 2 -a 1 -x {1.0 7.0 1 ------- null}
+ -t 0.733446125 -s 0 -d 3 -p tcp -e 55 -c 1 -i 2 -a 1 -x {1.0 7.0 1 ------- null}
- -t 0.733446125 -s 0 -d 3 -p tcp -e 55 -c 1 -i 2 -a 1 -x {1.0 7.0 1 ------- null}
h -t 0.733446125 -s 0 -d 3 -p tcp -e 55 -c 1 -i 2 -a 1 -x {1.0 7.0 -1 ------- null}
r -t 0.753886125 -s 0 -d 3 -p tcp -e 55 -c 1 -i 2 -a 1 -x {1.0 7.0 1 ------- null}
h -t 0.753886125 -s 3 -d 9 -p tcp -e 55 -c 1 -i 2 -a 1 -x {1.0 7.0 1 ------- null}
+ -t 0.793886125 -s 3 -d 9 -p tcp -e 55 -c 1 -i 2 -a 1 -x {1.0 7.0 1 ------- null}
- -t 0.793886125 -s 3 -d 9 -p tcp -e 55 -c 1 -i 2 -a 1 -x {1.0 7.0 1 ------- null}
h -t 0.793886125 -s 3 -d 9 -p tcp -e 55 -c 1 -i 2 -a 1 -x {1.0 7.0 -1 ------- null}
r -t 0.83496825 -s 9 -d 7 -p tcp -e 55 -c 1 -i 2 -a 1 -x {1.0 7.0 1 ------- null}
h -t 0.83496825 -s 7 -d 9 -p ack -e 40 -c 1 -i 3 -a 1 -x {7.0 1.0 1 ------- null}
+ -t 0.87496825 -s 7 -d 9 -p ack -e 40 -c 1 -i 3 -a 1 -x {7.0 1.0 1 ------- null}
- -t 0.87496825 -s 7 -d 9 -p ack -e 40 -c 1 -i 3 -a 1 -x {7.0 1.0 1 ------- null}
h -t 0.87496825 -s 7 -d 9 -p ack -e 40 -c 1 -i 3 -a 1 -x {7.0 1.0 -1 ------- null}
r -t 0.91597225 -s 9 -d 3 -p ack -e 40 -c 1 -i 3 -a 1 -x {7.0 1.0 1 ------- null}
+ -t 0.91597225 -s 3 -d 0 -p ack -e 40 -c 1 -i 3 -a 1 -x {7.0 1.0 1 ------- null}
- -t 0.91597225 -s 3 -d 0 -p ack -e 40 -c 1 -i 3 -a 1 -x {7.0 1.0 1 ------- null}
h -t 0.91597225 -s 3 -d 0 -p ack -e 40 -c 1 -i 3 -a 1 -x {7.0 1.0 -1 ------- null}
r -t 0.93629225 -s 3 -d 0 -p ack -e 40 -c 1 -i 3 -a 1 -x {7.0 1.0 1 ------- null}
+ -t 0.93629225 -s 0 -d 1 -p ack -e 40 -c 1 -i 3 -a 1 -x {7.0 1.0 1 ------- null}
- -t 0.93629225 -s 0 -d 1 -p ack -e 40 -c 1 -i 3 -a 1 -x {7.0 1.0 1 ------- null}
h -t 0.93629225 -s 0 -d 1 -p ack -e 40 -c 1 -i 3 -a 1 -x {7.0 1.0 -1 ------- null}
r -t 0.94645225 -s 0 -d 1 -p ack -e 40 -c 1 -i 3 -a 1 -x {7.0 1.0 1 ------- null}
+ -t 0.94645225 -s 1 -d 0 -p tcp -e 55 -c 1 -i 4 -a 1 -x {1.0 7.0 2 ------- null}
- -t 0.94645225 -s 1 -d 0 -p tcp -e 55 -c 1 -i 4 -a 1 -x {1.0 7.0 2 ------- null}
h -t 0.94645225 -s 1 -d 0 -p tcp -e 55 -c 1 -i 4 -a 1 -x {1.0 7.0 -1 ------- null}
+ -t 0.94645225 -s 1 -d 0 -p tcp -e 55 -c 1 -i 5 -a 1 -x {1.0 7.0 3 ------- null}
+ -t 0.94645225 -s 1 -d 0 -p tcp -e 55 -c 1 -i 6 -a 1 -x {1.0 7.0 4 ------- null}
- -t 0.94667225 -s 1 -d 0 -p tcp -e 55 -c 1 -i 5 -a 1 -x {1.0 7.0 3 ------- null}
h -t 0.94667225 -s 1 -d 0 -p tcp -e 55 -c 1 -i 5 -a 1 -x {1.0 7.0 -1 ------- null}
- -t 0.94689225 -s 1 -d 0 -p tcp -e 55 -c 1 -i 6 -a 1 -x {1.0 7.0 4 ------- null}
h -t 0.94689225 -s 1 -d 0 -p tcp -e 55 -c 1 -i 6 -a 1 -x {1.0 7.0 -1 ------- null}
r -t 0.95667225 -s 1 -d 0 -p tcp -e 55 -c 1 -i 4 -a 1 -x {1.0 7.0 2 ------- null}
+ -t 0.95667225 -s 0 -d 3 -p tcp -e 55 -c 1 -i 4 -a 1 -x {1.0 7.0 2 ------- null}
- -t 0.95667225 -s 0 -d 3 -p tcp -e 55 -c 1 -i 4 -a 1 -x {1.0 7.0 2 ------- null}
h -t 0.95667225 -s 0 -d 3 -p tcp -e 55 -c 1 -i 4 -a 1 -x {1.0 7.0 -1 ------- null}
r -t 0.95689225 -s 1 -d 0 -p tcp -e 55 -c 1 -i 5 -a 1 -x {1.0 7.0 3 ------- null}
+ -t 0.95689225 -s 0 -d 3 -p tcp -e 55 -c 1 -i 5 -a 1 -x {1.0 7.0 3 ------- null}
r -t 0.95711225 -s 1 -d 0 -p tcp -e 55 -c 1 -i 6 -a 1 -x {1.0 7.0 4 ------- null}
+ -t 0.95711225 -s 0 -d 3 -p tcp -e 55 -c 1 -i 6 -a 1 -x {1.0 7.0 4 ------- null}
- -t 0.95711225 -s 0 -d 3 -p tcp -e 55 -c 1 -i 5 -a 1 -x {1.0 7.0 3 ------- null}
h -t 0.95711225 -s 0 -d 3 -p tcp -e 55 -c 1 -i 5 -a 1 -x {1.0 7.0 -1 ------- null}
- -t 0.95755225 -s 0 -d 3 -p tcp -e 55 -c 1 -i 6 -a 1 -x {1.0 7.0 4 ------- null}
h -t 0.95755225 -s 0 -d 3 -p tcp -e 55 -c 1 -i 6 -a 1 -x {1.0 7.0 -1 ------- null}
r -t 0.97711225 -s 0 -d 3 -p tcp -e 55 -c 1 -i 4 -a 1 -x {1.0 7.0 2 ------- null}
h -t 0.97711225 -s 3 -d 9 -p tcp -e 55 -c 1 -i 4 -a 1 -x {1.0 7.0 2 ------- null}
r -t 0.97755225 -s 0 -d 3 -p tcp -e 55 -c 1 -i 5 -a 1 -x {1.0 7.0 3 ------- null}
h -t 0.97755225 -s 3 -d 9 -p tcp -e 55 -c 1 -i 5 -a 1 -x {1.0 7.0 3 ------- null}
r -t 0.97799225 -s 0 -d 3 -p tcp -e 55 -c 1 -i 6 -a 1 -x {1.0 7.0 4 ------- null}
h -t 0.97799225 -s 3 -d 9 -p tcp -e 55 -c 1 -i 6 -a 1 -x {1.0 7.0 4 ------- null}
+ -t 1.01711225 -s 3 -d 9 -p tcp -e 55 -c 1 -i 4 -a 1 -x {1.0 7.0 2 ------- null}
- -t 1.01711225 -s 3 -d 9 -p tcp -e 55 -c 1 -i 4 -a 1 -x {1.0 7.0 2 ------- null}
h -t 1.01711225 -s 3 -d 9 -p tcp -e 55 -c 1 -i 4 -a 1 -x {1.0 7.0 -1 ------- null}
+ -t 1.01755225 -s 3 -d 9 -p tcp -e 55 -c 1 -i 5 -a 1 -x {1.0 7.0 3 ------- null}
+ -t 1.01799225 -s 3 -d 9 -p tcp -e 55 -c 1 -i 6 -a 1 -x {1.0 7.0 4 ------- null}
- -t 1.018377875 -s 3 -d 9 -p tcp -e 55 -c 1 -i 5 -a 1 -x {1.0 7.0 3 ------- null}
h -t 1.018377875 -s 3 -d 9 -p tcp -e 55 -c 1 -i 5 -a 1 -x {1.0 7.0 -1 ------- null}
- -t 1.0196435 -s 3 -d 9 -p tcp -e 55 -c 1 -i 6 -a 1 -x {1.0 7.0 4 ------- null}
h -t 1.0196435 -s 3 -d 9 -p tcp -e 55 -c 1 -i 6 -a 1 -x {1.0 7.0 -1 ------- null}
r -t 1.058194375 -s 9 -d 7 -p tcp -e 55 -c 1 -i 4 -a 1 -x {1.0 7.0 2 ------- null}
h -t 1.058194375 -s 7 -d 9 -p ack -e 40 -c 1 -i 7 -a 1 -x {7.0 1.0 2 ------- null}
r -t 1.05946 -s 9 -d 7 -p tcp -e 55 -c 1 -i 5 -a 1 -x {1.0 7.0 3 ------- null}
h -t 1.05946 -s 7 -d 9 -p ack -e 40 -c 1 -i 8 -a 1 -x {7.0 1.0 3 ------- null}
r -t 1.060725625 -s 9 -d 7 -p tcp -e 55 -c 1 -i 6 -a 1 -x {1.0 7.0 4 ------- null}
h -t 1.060725625 -s 7 -d 9 -p ack -e 40 -c 1 -i 9 -a 1 -x {7.0 1.0 4 ------- null}
+ -t 1.098194375 -s 7 -d 9 -p ack -e 40 -c 1 -i 7 -a 1 -x {7.0 1.0 2 ------- null}
- -t 1.098194375 -s 7 -d 9 -p ack -e 40 -c 1 -i 7 -a 1 -x {7.0 1.0 2 ------- null}
h -t 1.098194375 -s 7 -d 9 -p ack -e 40 -c 1 -i 7 -a 1 -x {7.0 1.0 -1 ------- null}
+ -t 1.09946 -s 7 -d 9 -p ack -e 40 -c 1 -i 8 -a 1 -x {7.0 1.0 3 ------- null}
- -t 1.09946 -s 7 -d 9 -p ack -e 40 -c 1 -i 8 -a 1 -x {7.0 1.0 3 ------- null}
h -t 1.09946 -s 7 -d 9 -p ack -e 40 -c 1 -i 8 -a 1 -x {7.0 1.0 -1 ------- null}
+ -t 1.100725625 -s 7 -d 9 -p ack -e 40 -c 1 -i 9 -a 1 -x {7.0 1.0 4 ------- null}
- -t 1.100725625 -s 7 -d 9 -p ack -e 40 -c 1 -i 9 -a 1 -x {7.0 1.0 4 ------- null}
h -t 1.100725625 -s 7 -d 9 -p ack -e 40 -c 1 -i 9 -a 1 -x {7.0 1.0 -1 ------- null}
r -t 1.139198375 -s 9 -d 3 -p ack -e 40 -c 1 -i 7 -a 1 -x {7.0 1.0 2 ------- null}
+ -t 1.139198375 -s 3 -d 0 -p ack -e 40 -c 1 -i 7 -a 1 -x {7.0 1.0 2 ------- null}
- -t 1.139198375 -s 3 -d 0 -p ack -e 40 -c 1 -i 7 -a 1 -x {7.0 1.0 2 ------- null}
h -t 1.139198375 -s 3 -d 0 -p ack -e 40 -c 1 -i 7 -a 1 -x {7.0 1.0 -1 ------- null}
r -t 1.140464 -s 9 -d 3 -p ack -e 40 -c 1 -i 8 -a 1 -x {7.0 1.0 3 ------- null}
+ -t 1.140464 -s 3 -d 0 -p ack -e 40 -c 1 -i 8 -a 1 -x {7.0 1.0 3 ------- null}
- -t 1.140464 -s 3 -d 0 -p ack -e 40 -c 1 -i 8 -a 1 -x {7.0 1.0 3 ------- null}
h -t 1.140464 -s 3 -d 0 -p ack -e 40 -c 1 -i 8 -a 1 -x {7.0 1.0 -1 ------- null}
r -t 1.141729625 -s 9 -d 3 -p ack -e 40 -c 1 -i 9 -a 1 -x {7.0 1.0 4 ------- null}
+ -t 1.141729625 -s 3 -d 0 -p ack -e 40 -c 1 -i 9 -a 1 -x {7.0 1.0 4 ------- null}
- -t 1.141729625 -s 3 -d 0 -p ack -e 40 -c 1 -i 9 -a 1 -x {7.0 1.0 4 ------- null}
h -t 1.141729625 -s 3 -d 0 -p ack -e 40 -c 1 -i 9 -a 1 -x {7.0 1.0 -1 ------- null}
r -t 1.159518375 -s 3 -d 0 -p ack -e 40 -c 1 -i 7 -a 1 -x {7.0 1.0 2 ------- null}
+ -t 1.159518375 -s 0 -d 1 -p ack -e 40 -c 1 -i 7 -a 1 -x {7.0 1.0 2 ------- null}
- -t 1.159518375 -s 0 -d 1 -p ack -e 40 -c 1 -i 7 -a 1 -x {7.0 1.0 2 ------- null}
h -t 1.159518375 -s 0 -d 1 -p ack -e 40 -c 1 -i 7 -a 1 -x {7.0 1.0 -1 ------- null}
r -t 1.160784 -s 3 -d 0 -p ack -e 40 -c 1 -i 8 -a 1 -x {7.0 1.0 3 ------- null}
+ -t 1.160784 -s 0 -d 1 -p ack -e 40 -c 1 -i 8 -a 1 -x {7.0 1.0 3 ------- null}
- -t 1.160784 -s 0 -d 1 -p ack -e 40 -c 1 -i 8 -a 1 -x {7.0 1.0 3 ------- null}
h -t 1.160784 -s 0 -d 1 -p ack -e 40 -c 1 -i 8 -a 1 -x {7.0 1.0 -1 ------- null}
r -t 1.162049625 -s 3 -d 0 -p ack -e 40 -c 1 -i 9 -a 1 -x {7.0 1.0 4 ------- null}
+ -t 1.162049625 -s 0 -d 1 -p ack -e 40 -c 1 -i 9 -a 1 -x {7.0 1.0 4 ------- null}
- -t 1.162049625 -s 0 -d 1 -p ack -e 40 -c 1 -i 9 -a 1 -x {7.0 1.0 4 ------- null}
h -t 1.162049625 -s 0 -d 1 -p ack -e 40 -c 1 -i 9 -a 1 -x {7.0 1.0 -1 ------- null}
r -t 1.169678375 -s 0 -d 1 -p ack -e 40 -c 1 -i 7 -a 1 -x {7.0 1.0 2 ------- null}
+ -t 1.169678375 -s 1 -d 0 -p tcp -e 55 -c 1 -i 10 -a 1 -x {1.0 7.0 5 ------- null}
- -t 1.169678375 -s 1 -d 0 -p tcp -e 55 -c 1 -i 10 -a 1 -x {1.0 7.0 5 ------- null}
h -t 1.169678375 -s 1 -d 0 -p tcp -e 55 -c 1 -i 10 -a 1 -x {1.0 7.0 -1 ------- null}
r -t 1.170944 -s 0 -d 1 -p ack -e 40 -c 1 -i 8 -a 1 -x {7.0 1.0 3 ------- null}
+ -t 1.170944 -s 1 -d 0 -p tcp -e 55 -c 1 -i 11 -a 1 -x {1.0 7.0 6 ------- null}
- -t 1.170944 -s 1 -d 0 -p tcp -e 55 -c 1 -i 11 -a 1 -x {1.0 7.0 6 ------- null}
h -t 1.170944 -s 1 -d 0 -p tcp -e 55 -c 1 -i 11 -a 1 -x {1.0 7.0 -1 ------- null}
r -t 1.172209625 -s 0 -d 1 -p ack -e 40 -c 1 -i 9 -a 1 -x {7.0 1.0 4 ------- null}
+ -t 1.172209625 -s 1 -d 0 -p tcp -e 55 -c 1 -i 12 -a 1 -x {1.0 7.0 7 ------- null}
- -t 1.172209625 -s 1 -d 0 -p tcp -e 55 -c 1 -i 12 -a 1 -x {1.0 7.0 7 ------- null}
h -t 1.172209625 -s 1 -d 0 -p tcp -e 55 -c 1 -i 12 -a 1 -x {1.0 7.0 -1 ------- null}
r -t 1.179898375 -s 1 -d 0 -p tcp -e 55 -c 1 -i 10 -a 1 -x {1.0 7.0 5 ------- null}
+ -t 1.179898375 -s 0 -d 3 -p tcp -e 55 -c 1 -i 10 -a 1 -x {1.0 7.0 5 ------- null}
- -t 1.179898375 -s 0 -d 3 -p tcp -e 55 -c 1 -i 10 -a 1 -x {1.0 7.0 5 ------- null}
h -t 1.179898375 -s 0 -d 3 -p tcp -e 55 -c 1 -i 10 -a 1 -x {1.0 7.0 -1 ------- null}
r -t 1.181164 -s 1 -d 0 -p tcp -e 55 -c 1 -i 11 -a 1 -x {1.0 7.0 6 ------- null}
+ -t 1.181164 -s 0 -d 3 -p tcp -e 55 -c 1 -i 11 -a 1 -x {1.0 7.0 6 ------- null}
- -t 1.181164 -s 0 -d 3 -p tcp -e 55 -c 1 -i 11 -a 1 -x {1.0 7.0 6 ------- null}
h -t 1.181164 -s 0 -d 3 -p tcp -e 55 -c 1 -i 11 -a 1 -x {1.0 7.0 -1 ------- null}
r -t 1.182429625 -s 1 -d 0 -p tcp -e 55 -c 1 -i 12 -a 1 -x {1.0 7.0 7 ------- null}
+ -t 1.182429625 -s 0 -d 3 -p tcp -e 55 -c 1 -i 12 -a 1 -x {1.0 7.0 7 ------- null}
- -t 1.182429625 -s 0 -d 3 -p tcp -e 55 -c 1 -i 12 -a 1 -x {1.0 7.0 7 ------- null}
h -t 1.182429625 -s 0 -d 3 -p tcp -e 55 -c 1 -i 12 -a 1 -x {1.0 7.0 -1 ------- null}
r -t 1.200338375 -s 0 -d 3 -p tcp -e 55 -c 1 -i 10 -a 1 -x {1.0 7.0 5 ------- null}
h -t 1.200338375 -s 3 -d 9 -p tcp -e 55 -c 1 -i 10 -a 1 -x {1.0 7.0 5 ------- null}
r -t 1.201604 -s 0 -d 3 -p tcp -e 55 -c 1 -i 11 -a 1 -x {1.0 7.0 6 ------- null}
h -t 1.201604 -s 3 -d 9 -p tcp -e 55 -c 1 -i 11 -a 1 -x {1.0 7.0 6 ------- null}
r -t 1.202869625 -s 0 -d 3 -p tcp -e 55 -c 1 -i 12 -a 1 -x {1.0 7.0 7 ------- null}
h -t 1.202869625 -s 3 -d 9 -p tcp -e 55 -c 1 -i 12 -a 1 -x {1.0 7.0 7 ------- null}
+ -t 1.240338375 -s 3 -d 9 -p tcp -e 55 -c 1 -i 10 -a 1 -x {1.0 7.0 5 ------- null}
- -t 1.240338375 -s 3 -d 9 -p tcp -e 55 -c 1 -i 10 -a 1 -x {1.0 7.0 5 ------- null}
h -t 1.240338375 -s 3 -d 9 -p tcp -e 55 -c 1 -i 10 -a 1 -x {1.0 7.0 -1 ------- null}
+ -t 1.241604 -s 3 -d 9 -p tcp -e 55 -c 1 -i 11 -a 1 -x {1.0 7.0 6 ------- null}
- -t 1.241604 -s 3 -d 9 -p tcp -e 55 -c 1 -i 11 -a 1 -x {1.0 7.0 6 ------- null}
h -t 1.241604 -s 3 -d 9 -p tcp -e 55 -c 1 -i 11 -a 1 -x {1.0 7.0 -1 ------- null}
+ -t 1.242869625 -s 3 -d 9 -p tcp -e 55 -c 1 -i 12 -a 1 -x {1.0 7.0 7 ------- null}
- -t 1.242869625 -s 3 -d 9 -p tcp -e 55 -c 1 -i 12 -a 1 -x {1.0 7.0 7 ------- null}
h -t 1.242869625 -s 3 -d 9 -p tcp -e 55 -c 1 -i 12 -a 1 -x {1.0 7.0 -1 ------- null}
r -t 1.2814205 -s 9 -d 7 -p tcp -e 55 -c 1 -i 10 -a 1 -x {1.0 7.0 5 ------- null}
h -t 1.2814205 -s 7 -d 9 -p ack -e 40 -c 1 -i 13 -a 1 -x {7.0 1.0 5 ------- null}
r -t 1.282686125 -s 9 -d 7 -p tcp -e 55 -c 1 -i 11 -a 1 -x {1.0 7.0 6 ------- null}
h -t 1.282686125 -s 7 -d 9 -p ack -e 40 -c 1 -i 14 -a 1 -x {7.0 1.0 6 ------- null}
r -t 1.28395175 -s 9 -d 7 -p tcp -e 55 -c 1 -i 12 -a 1 -x {1.0 7.0 7 ------- null}
h -t 1.28395175 -s 7 -d 9 -p ack -e 40 -c 1 -i 15 -a 1 -x {7.0 1.0 7 ------- null}
+ -t 1.3214205 -s 7 -d 9 -p ack -e 40 -c 1 -i 13 -a 1 -x {7.0 1.0 5 ------- null}
- -t 1.3214205 -s 7 -d 9 -p ack -e 40 -c 1 -i 13 -a 1 -x {7.0 1.0 5 ------- null}
h -t 1.3214205 -s 7 -d 9 -p ack -e 40 -c 1 -i 13 -a 1 -x {7.0 1.0 -1 ------- null}
+ -t 1.322686125 -s 7 -d 9 -p ack -e 40 -c 1 -i 14 -a 1 -x {7.0 1.0 6 ------- null}
- -t 1.322686125 -s 7 -d 9 -p ack -e 40 -c 1 -i 14 -a 1 -x {7.0 1.0 6 ------- null}
h -t 1.322686125 -s 7 -d 9 -p ack -e 40 -c 1 -i 14 -a 1 -x {7.0 1.0 -1 ------- null}
+ -t 1.32395175 -s 7 -d 9 -p ack -e 40 -c 1 -i 15 -a 1 -x {7.0 1.0 7 ------- null}
- -t 1.32395175 -s 7 -d 9 -p ack -e 40 -c 1 -i 15 -a 1 -x {7.0 1.0 7 ------- null}
h -t 1.32395175 -s 7 -d 9 -p ack -e 40 -c 1 -i 15 -a 1 -x {7.0 1.0 -1 ------- null}
r -t 1.3624245 -s 9 -d 3 -p ack -e 40 -c 1 -i 13 -a 1 -x {7.0 1.0 5 ------- null}
+ -t 1.3624245 -s 3 -d 0 -p ack -e 40 -c 1 -i 13 -a 1 -x {7.0 1.0 5 ------- null}
- -t 1.3624245 -s 3 -d 0 -p ack -e 40 -c 1 -i 13 -a 1 -x {7.0 1.0 5 ------- null}
h -t 1.3624245 -s 3 -d 0 -p ack -e 40 -c 1 -i 13 -a 1 -x {7.0 1.0 -1 ------- null}
r -t 1.363690125 -s 9 -d 3 -p ack -e 40 -c 1 -i 14 -a 1 -x {7.0 1.0 6 ------- null}
+ -t 1.363690125 -s 3 -d 0 -p ack -e 40 -c 1 -i 14 -a 1 -x {7.0 1.0 6 ------- null}
- -t 1.363690125 -s 3 -d 0 -p ack -e 40 -c 1 -i 14 -a 1 -x {7.0 1.0 6 ------- null}
h -t 1.363690125 -s 3 -d 0 -p ack -e 40 -c 1 -i 14 -a 1 -x {7.0 1.0 -1 ------- null}
r -t 1.36495575 -s 9 -d 3 -p ack -e 40 -c 1 -i 15 -a 1 -x {7.0 1.0 7 ------- null}
+ -t 1.36495575 -s 3 -d 0 -p ack -e 40 -c 1 -i 15 -a 1 -x {7.0 1.0 7 ------- null}
- -t 1.36495575 -s 3 -d 0 -p ack -e 40 -c 1 -i 15 -a 1 -x {7.0 1.0 7 ------- null}
h -t 1.36495575 -s 3 -d 0 -p ack -e 40 -c 1 -i 15 -a 1 -x {7.0 1.0 -1 ------- null}
r -t 1.3827445 -s 3 -d 0 -p ack -e 40 -c 1 -i 13 -a 1 -x {7.0 1.0 5 ------- null}
+ -t 1.3827445 -s 0 -d 1 -p ack -e 40 -c 1 -i 13 -a 1 -x {7.0 1.0 5 ------- null}
- -t 1.3827445 -s 0 -d 1 -p ack -e 40 -c 1 -i 13 -a 1 -x {7.0 1.0 5 ------- null}
h -t 1.3827445 -s 0 -d 1 -p ack -e 40 -c 1 -i 13 -a 1 -x {7.0 1.0 -1 ------- null}
r -t 1.384010125 -s 3 -d 0 -p ack -e 40 -c 1 -i 14 -a 1 -x {7.0 1.0 6 ------- null}
+ -t 1.384010125 -s 0 -d 1 -p ack -e 40 -c 1 -i 14 -a 1 -x {7.0 1.0 6 ------- null}
- -t 1.384010125 -s 0 -d 1 -p ack -e 40 -c 1 -i 14 -a 1 -x {7.0 1.0 6 ------- null}
h -t 1.384010125 -s 0 -d 1 -p ack -e 40 -c 1 -i 14 -a 1 -x {7.0 1.0 -1 ------- null}
r -t 1.38527575 -s 3 -d 0 -p ack -e 40 -c 1 -i 15 -a 1 -x {7.0 1.0 7 ------- null}
+ -t 1.38527575 -s 0 -d 1 -p ack -e 40 -c 1 -i 15 -a 1 -x {7.0 1.0 7 ------- null}
- -t 1.38527575 -s 0 -d 1 -p ack -e 40 -c 1 -i 15 -a 1 -x {7.0 1.0 7 ------- null}
h -t 1.38527575 -s 0 -d 1 -p ack -e 40 -c 1 -i 15 -a 1 -x {7.0 1.0 -1 ------- null}
r -t 1.3929045 -s 0 -d 1 -p ack -e 40 -c 1 -i 13 -a 1 -x {7.0 1.0 5 ------- null}
+ -t 1.3929045 -s 1 -d 0 -p tcp -e 55 -c 1 -i 16 -a 1 -x {1.0 7.0 8 ------- null}
- -t 1.3929045 -s 1 -d 0 -p tcp -e 55 -c 1 -i 16 -a 1 -x {1.0 7.0 8 ------- null}
h -t 1.3929045 -s 1 -d 0 -p tcp -e 55 -c 1 -i 16 -a 1 -x {1.0 7.0 -1 ------- null}
+ -t 1.3929045 -s 1 -d 0 -p tcp -e 55 -c 1 -i 17 -a 1 -x {1.0 7.0 9 ------- null}
- -t 1.3931245 -s 1 -d 0 -p tcp -e 55 -c 1 -i 17 -a 1 -x {1.0 7.0 9 ------- null}
h -t 1.3931245 -s 1 -d 0 -p tcp -e 55 -c 1 -i 17 -a 1 -x {1.0 7.0 -1 ------- null}
r -t 1.394170125 -s 0 -d 1 -p ack -e 40 -c 1 -i 14 -a 1 -x {7.0 1.0 6 ------- null}
+ -t 1.394170125 -s 1 -d 0 -p tcp -e 55 -c 1 -i 18 -a 1 -x {1.0 7.0 10 ------- null}
- -t 1.394170125 -s 1 -d 0 -p tcp -e 55 -c 1 -i 18 -a 1 -x {1.0 7.0 10 ------- null}
h -t 1.394170125 -s 1 -d 0 -p tcp -e 55 -c 1 -i 18 -a 1 -x {1.0 7.0 -1 ------- null}
+ -t 1.394170125 -s 1 -d 0 -p tcp -e 55 -c 1 -i 19 -a 1 -x {1.0 7.0 11 ------- null}
- -t 1.394390125 -s 1 -d 0 -p tcp -e 55 -c 1 -i 19 -a 1 -x {1.0 7.0 11 ------- null}
h -t 1.394390125 -s 1 -d 0 -p tcp -e 55 -c 1 -i 19 -a 1 -x {1.0 7.0 -1 ------- null}
r -t 1.39543575 -s 0 -d 1 -p ack -e 40 -c 1 -i 15 -a 1 -x {7.0 1.0 7 ------- null}
+ -t 1.39543575 -s 1 -d 0 -p tcp -e 55 -c 1 -i 20 -a 1 -x {1.0 7.0 12 ------- null}
- -t 1.39543575 -s 1 -d 0 -p tcp -e 55 -c 1 -i 20 -a 1 -x {1.0 7.0 12 ------- null}
h -t 1.39543575 -s 1 -d 0 -p tcp -e 55 -c 1 -i 20 -a 1 -x {1.0 7.0 -1 ------- null}
+ -t 1.39543575 -s 1 -d 0 -p tcp -e 55 -c 1 -i 21 -a 1 -x {1.0 7.0 13 ------- null}
- -t 1.39565575 -s 1 -d 0 -p tcp -e 55 -c 1 -i 21 -a 1 -x {1.0 7.0 13 ------- null}
h -t 1.39565575 -s 1 -d 0 -p tcp -e 55 -c 1 -i 21 -a 1 -x {1.0 7.0 -1 ------- null}
r -t 1.4031245 -s 1 -d 0 -p tcp -e 55 -c 1 -i 16 -a 1 -x {1.0 7.0 8 ------- null}
+ -t 1.4031245 -s 0 -d 3 -p tcp -e 55 -c 1 -i 16 -a 1 -x {1.0 7.0 8 ------- null}
- -t 1.4031245 -s 0 -d 3 -p tcp -e 55 -c 1 -i 16 -a 1 -x {1.0 7.0 8 ------- null}
h -t 1.4031245 -s 0 -d 3 -p tcp -e 55 -c 1 -i 16 -a 1 -x {1.0 7.0 -1 ------- null}
r -t 1.4033445 -s 1 -d 0 -p tcp -e 55 -c 1 -i 17 -a 1 -x {1.0 7.0 9 ------- null}
+ -t 1.4033445 -s 0 -d 3 -p tcp -e 55 -c 1 -i 17 -a 1 -x {1.0 7.0 9 ------- null}
- -t 1.4035645 -s 0 -d 3 -p tcp -e 55 -c 1 -i 17 -a 1 -x {1.0 7.0 9 ------- null}
h -t 1.4035645 -s 0 -d 3 -p tcp -e 55 -c 1 -i 17 -a 1 -x {1.0 7.0 -1 ------- null}
r -t 1.404390125 -s 1 -d 0 -p tcp -e 55 -c 1 -i 18 -a 1 -x {1.0 7.0 10 ------- null}
+ -t 1.404390125 -s 0 -d 3 -p tcp -e 55 -c 1 -i 18 -a 1 -x {1.0 7.0 10 ------- null}
- -t 1.404390125 -s 0 -d 3 -p tcp -e 55 -c 1 -i 18 -a 1 -x {1.0 7.0 10 ------- null}
h -t 1.404390125 -s 0 -d 3 -p tcp -e 55 -c 1 -i 18 -a 1 -x {1.0 7.0 -1 ------- null}
r -t 1.404610125 -s 1 -d 0 -p tcp -e 55 -c 1 -i 19 -a 1 -x {1.0 7.0 11 ------- null}
+ -t 1.404610125 -s 0 -d 3 -p tcp -e 55 -c 1 -i 19 -a 1 -x {1.0 7.0 11 ------- null}
- -t 1.404830125 -s 0 -d 3 -p tcp -e 55 -c 1 -i 19 -a 1 -x {1.0 7.0 11 ------- null}
h -t 1.404830125 -s 0 -d 3 -p tcp -e 55 -c 1 -i 19 -a 1 -x {1.0 7.0 -1 ------- null}
r -t 1.40565575 -s 1 -d 0 -p tcp -e 55 -c 1 -i 20 -a 1 -x {1.0 7.0 12 ------- null}
+ -t 1.40565575 -s 0 -d 3 -p tcp -e 55 -c 1 -i 20 -a 1 -x {1.0 7.0 12 ------- null}
- -t 1.40565575 -s 0 -d 3 -p tcp -e 55 -c 1 -i 20 -a 1 -x {1.0 7.0 12 ------- null}
h -t 1.40565575 -s 0 -d 3 -p tcp -e 55 -c 1 -i 20 -a 1 -x {1.0 7.0 -1 ------- null}
r -t 1.40587575 -s 1 -d 0 -p tcp -e 55 -c 1 -i 21 -a 1 -x {1.0 7.0 13 ------- null}
+ -t 1.40587575 -s 0 -d 3 -p tcp -e 55 -c 1 -i 21 -a 1 -x {1.0 7.0 13 ------- null}
- -t 1.40609575 -s 0 -d 3 -p tcp -e 55 -c 1 -i 21 -a 1 -x {1.0 7.0 13 ------- null}
h -t 1.40609575 -s 0 -d 3 -p tcp -e 55 -c 1 -i 21 -a 1 -x {1.0 7.0 -1 ------- null}
r -t 1.4235645 -s 0 -d 3 -p tcp -e 55 -c 1 -i 16 -a 1 -x {1.0 7.0 8 ------- null}
h -t 1.4235645 -s 3 -d 9 -p tcp -e 55 -c 1 -i 16 -a 1 -x {1.0 7.0 8 ------- null}
r -t 1.4240045 -s 0 -d 3 -p tcp -e 55 -c 1 -i 17 -a 1 -x {1.0 7.0 9 ------- null}
h -t 1.4240045 -s 3 -d 9 -p tcp -e 55 -c 1 -i 17 -a 1 -x {1.0 7.0 9 ------- null}
r -t 1.424830125 -s 0 -d 3 -p tcp -e 55 -c 1 -i 18 -a 1 -x {1.0 7.0 10 ------- null}
h -t 1.424830125 -s 3 -d 9 -p tcp -e 55 -c 1 -i 18 -a 1 -x {1.0 7.0 10 ------- null}
r -t 1.425270125 -s 0 -d 3 -p tcp -e 55 -c 1 -i 19 -a 1 -x {1.0 7.0 11 ------- null}
h -t 1.425270125 -s 3 -d 9 -p tcp -e 55 -c 1 -i 19 -a 1 -x {1.0 7.0 11 ------- null}
r -t 1.42609575 -s 0 -d 3 -p tcp -e 55 -c 1 -i 20 -a 1 -x {1.0 7.0 12 ------- null}
h -t 1.42609575 -s 3 -d 9 -p tcp -e 55 -c 1 -i 20 -a 1 -x {1.0 7.0 12 ------- null}
r -t 1.42653575 -s 0 -d 3 -p tcp -e 55 -c 1 -i 21 -a 1 -x {1.0 7.0 13 ------- null}
h -t 1.42653575 -s 3 -d 9 -p tcp -e 55 -c 1 -i 21 -a 1 -x {1.0 7.0 13 ------- null}
+ -t 1.4635645 -s 3 -d 9 -p tcp -e 55 -c 1 -i 16 -a 1 -x {1.0 7.0 8 ------- null}
- -t 1.4635645 -s 3 -d 9 -p tcp -e 55 -c 1 -i 16 -a 1 -x {1.0 7.0 8 ------- null}
h -t 1.4635645 -s 3 -d 9 -p tcp -e 55 -c 1 -i 16 -a 1 -x {1.0 7.0 -1 ------- null}
+ -t 1.4640045 -s 3 -d 9 -p tcp -e 55 -c 1 -i 17 -a 1 -x {1.0 7.0 9 ------- null}
+ -t 1.464830125 -s 3 -d 9 -p tcp -e 55 -c 1 -i 18 -a 1 -x {1.0 7.0 10 ------- null}
- -t 1.464830125 -s 3 -d 9 -p tcp -e 55 -c 1 -i 17 -a 1 -x {1.0 7.0 9 ------- null}
h -t 1.464830125 -s 3 -d 9 -p tcp -e 55 -c 1 -i 17 -a 1 -x {1.0 7.0 -1 ------- null}
+ -t 1.465270125 -s 3 -d 9 -p tcp -e 55 -c 1 -i 19 -a 1 -x {1.0 7.0 11 ------- null}
+ -t 1.46609575 -s 3 -d 9 -p tcp -e 55 -c 1 -i 20 -a 1 -x {1.0 7.0 12 ------- null}
- -t 1.46609575 -s 3 -d 9 -p tcp -e 55 -c 1 -i 18 -a 1 -x {1.0 7.0 10 ------- null}
h -t 1.46609575 -s 3 -d 9 -p tcp -e 55 -c 1 -i 18 -a 1 -x {1.0 7.0 -1 ------- null}
+ -t 1.46653575 -s 3 -d 9 -p tcp -e 55 -c 1 -i 21 -a 1 -x {1.0 7.0 13 ------- null}
- -t 1.467361375 -s 3 -d 9 -p tcp -e 55 -c 1 -i 19 -a 1 -x {1.0 7.0 11 ------- null}
h -t 1.467361375 -s 3 -d 9 -p tcp -e 55 -c 1 -i 19 -a 1 -x {1.0 7.0 -1 ------- null}
- -t 1.468627 -s 3 -d 9 -p tcp -e 55 -c 1 -i 20 -a 1 -x {1.0 7.0 12 ------- null}
h -t 1.468627 -s 3 -d 9 -p tcp -e 55 -c 1 -i 20 -a 1 -x {1.0 7.0 -1 ------- null}
- -t 1.469892625 -s 3 -d 9 -p tcp -e 55 -c 1 -i 21 -a 1 -x {1.0 7.0 13 ------- null}
h -t 1.469892625 -s 3 -d 9 -p tcp -e 55 -c 1 -i 21 -a 1 -x {1.0 7.0 -1 ------- null}
r -t 1.504646625 -s 9 -d 7 -p tcp -e 55 -c 1 -i 16 -a 1 -x {1.0 7.0 8 ------- null}
h -t 1.504646625 -s 7 -d 9 -p ack -e 40 -c 1 -i 22 -a 1 -x {7.0 1.0 8 ------- null}
r -t 1.50591225 -s 9 -d 7 -p tcp -e 55 -c 1 -i 17 -a 1 -x {1.0 7.0 9 ------- null}
h -t 1.50591225 -s 7 -d 9 -p ack -e 40 -c 1 -i 23 -a 1 -x {7.0 1.0 9 ------- null}
r -t 1.507177875 -s 9 -d 7 -p tcp -e 55 -c 1 -i 18 -a 1 -x {1.0 7.0 10 ------- null}
h -t 1.507177875 -s 7 -d 9 -p ack -e 40 -c 1 -i 24 -a 1 -x {7.0 1.0 10 ------- null}
r -t 1.5084435 -s 9 -d 7 -p tcp -e 55 -c 1 -i 19 -a 1 -x {1.0 7.0 11 ------- null}
h -t 1.5084435 -s 7 -d 9 -p ack -e 40 -c 1 -i 25 -a 1 -x {7.0 1.0 11 ------- null}
r -t 1.509709125 -s 9 -d 7 -p tcp -e 55 -c 1 -i 20 -a 1 -x {1.0 7.0 12 ------- null}
h -t 1.509709125 -s 7 -d 9 -p ack -e 40 -c 1 -i 26 -a 1 -x {7.0 1.0 12 ------- null}
r -t 1.51097475 -s 9 -d 7 -p tcp -e 55 -c 1 -i 21 -a 1 -x {1.0 7.0 13 ------- null}
h -t 1.51097475 -s 7 -d 9 -p ack -e 40 -c 1 -i 27 -a 1 -x {7.0 1.0 13 ------- null}
+ -t 1.544646625 -s 7 -d 9 -p ack -e 40 -c 1 -i 22 -a 1 -x {7.0 1.0 8 ------- null}
- -t 1.544646625 -s 7 -d 9 -p ack -e 40 -c 1 -i 22 -a 1 -x {7.0 1.0 8 ------- null}
h -t 1.544646625 -s 7 -d 9 -p ack -e 40 -c 1 -i 22 -a 1 -x {7.0 1.0 -1 ------- null}
+ -t 1.54591225 -s 7 -d 9 -p ack -e 40 -c 1 -i 23 -a 1 -x {7.0 1.0 9 ------- null}
- -t 1.54591225 -s 7 -d 9 -p ack -e 40 -c 1 -i 23 -a 1 -x {7.0 1.0 9 ------- null}
h -t 1.54591225 -s 7 -d 9 -p ack -e 40 -c 1 -i 23 -a 1 -x {7.0 1.0 -1 ------- null}
+ -t 1.547177875 -s 7 -d 9 -p ack -e 40 -c 1 -i 24 -a 1 -x {7.0 1.0 10 ------- null}
- -t 1.547177875 -s 7 -d 9 -p ack -e 40 -c 1 -i 24 -a 1 -x {7.0 1.0 10 ------- null}
h -t 1.547177875 -s 7 -d 9 -p ack -e 40 -c 1 -i 24 -a 1 -x {7.0 1.0 -1 ------- null}
+ -t 1.5484435 -s 7 -d 9 -p ack -e 40 -c 1 -i 25 -a 1 -x {7.0 1.0 11 ------- null}
- -t 1.5484435 -s 7 -d 9 -p ack -e 40 -c 1 -i 25 -a 1 -x {7.0 1.0 11 ------- null}
h -t 1.5484435 -s 7 -d 9 -p ack -e 40 -c 1 -i 25 -a 1 -x {7.0 1.0 -1 ------- null}
+ -t 1.549709125 -s 7 -d 9 -p ack -e 40 -c 1 -i 26 -a 1 -x {7.0 1.0 12 ------- null}
- -t 1.549709125 -s 7 -d 9 -p ack -e 40 -c 1 -i 26 -a 1 -x {7.0 1.0 12 ------- null}
h -t 1.549709125 -s 7 -d 9 -p ack -e 40 -c 1 -i 26 -a 1 -x {7.0 1.0 -1 ------- null}
+ -t 1.55097475 -s 7 -d 9 -p ack -e 40 -c 1 -i 27 -a 1 -x {7.0 1.0 13 ------- null}
- -t 1.55097475 -s 7 -d 9 -p ack -e 40 -c 1 -i 27 -a 1 -x {7.0 1.0 13 ------- null}
h -t 1.55097475 -s 7 -d 9 -p ack -e 40 -c 1 -i 27 -a 1 -x {7.0 1.0 -1 ------- null}
r -t 1.585650625 -s 9 -d 3 -p ack -e 40 -c 1 -i 22 -a 1 -x {7.0 1.0 8 ------- null}
+ -t 1.585650625 -s 3 -d 0 -p ack -e 40 -c 1 -i 22 -a 1 -x {7.0 1.0 8 ------- null}
- -t 1.585650625 -s 3 -d 0 -p ack -e 40 -c 1 -i 22 -a 1 -x {7.0 1.0 8 ------- null}
h -t 1.585650625 -s 3 -d 0 -p ack -e 40 -c 1 -i 22 -a 1 -x {7.0 1.0 -1 ------- null}
r -t 1.58691625 -s 9 -d 3 -p ack -e 40 -c 1 -i 23 -a 1 -x {7.0 1.0 9 ------- null}
+ -t 1.58691625 -s 3 -d 0 -p ack -e 40 -c 1 -i 23 -a 1 -x {7.0 1.0 9 ------- null}
- -t 1.58691625 -s 3 -d 0 -p ack -e 40 -c 1 -i 23 -a 1 -x {7.0 1.0 9 ------- null}
h -t 1.58691625 -s 3 -d 0 -p ack -e 40 -c 1 -i 23 -a 1 -x {7.0 1.0 -1 ------- null}
r -t 1.588181875 -s 9 -d 3 -p ack -e 40 -c 1 -i 24 -a 1 -x {7.0 1.0 10 ------- null}
+ -t 1.588181875 -s 3 -d 0 -p ack -e 40 -c 1 -i 24 -a 1 -x {7.0 1.0 10 ------- null}
- -t 1.588181875 -s 3 -d 0 -p ack -e 40 -c 1 -i 24 -a 1 -x {7.0 1.0 10 ------- null}
h -t 1.588181875 -s 3 -d 0 -p ack -e 40 -c 1 -i 24 -a 1 -x {7.0 1.0 -1 ------- null}
r -t 1.5894475 -s 9 -d 3 -p ack -e 40 -c 1 -i 25 -a 1 -x {7.0 1.0 11 ------- null}
+ -t 1.5894475 -s 3 -d 0 -p ack -e 40 -c 1 -i 25 -a 1 -x {7.0 1.0 11 ------- null}
- -t 1.5894475 -s 3 -d 0 -p ack -e 40 -c 1 -i 25 -a 1 -x {7.0 1.0 11 ------- null}
h -t 1.5894475 -s 3 -d 0 -p ack -e 40 -c 1 -i 25 -a 1 -x {7.0 1.0 -1 ------- null}
r -t 1.590713125 -s 9 -d 3 -p ack -e 40 -c 1 -i 26 -a 1 -x {7.0 1.0 12 ------- null}
+ -t 1.590713125 -s 3 -d 0 -p ack -e 40 -c 1 -i 26 -a 1 -x {7.0 1.0 12 ------- null}
- -t 1.590713125 -s 3 -d 0 -p ack -e 40 -c 1 -i 26 -a 1 -x {7.0 1.0 12 ------- null}
h -t 1.590713125 -s 3 -d 0 -p ack -e 40 -c 1 -i 26 -a 1 -x {7.0 1.0 -1 ------- null}
r -t 1.59197875 -s 9 -d 3 -p ack -e 40 -c 1 -i 27 -a 1 -x {7.0 1.0 13 ------- null}
+ -t 1.59197875 -s 3 -d 0 -p ack -e 40 -c 1 -i 27 -a 1 -x {7.0 1.0 13 ------- null}
- -t 1.59197875 -s 3 -d 0 -p ack -e 40 -c 1 -i 27 -a 1 -x {7.0 1.0 13 ------- null}
h -t 1.59197875 -s 3 -d 0 -p ack -e 40 -c 1 -i 27 -a 1 -x {7.0 1.0 -1 ------- null}
r -t 1.605970625 -s 3 -d 0 -p ack -e 40 -c 1 -i 22 -a 1 -x {7.0 1.0 8 ------- null}
+ -t 1.605970625 -s 0 -d 1 -p ack -e 40 -c 1 -i 22 -a 1 -x {7.0 1.0 8 ------- null}
- -t 1.605970625 -s 0 -d 1 -p ack -e 40 -c 1 -i 22 -a 1 -x {7.0 1.0 8 ------- null}
h -t 1.605970625 -s 0 -d 1 -p ack -e 40 -c 1 -i 22 -a 1 -x {7.0 1.0 -1 ------- null}
r -t 1.60723625 -s 3 -d 0 -p ack -e 40 -c 1 -i 23 -a 1 -x {7.0 1.0 9 ------- null}
+ -t 1.60723625 -s 0 -d 1 -p ack -e 40 -c 1 -i 23 -a 1 -x {7.0 1.0 9 ------- null}
- -t 1.60723625 -s 0 -d 1 -p ack -e 40 -c 1 -i 23 -a 1 -x {7.0 1.0 9 ------- null}
h -t 1.60723625 -s 0 -d 1 -p ack -e 40 -c 1 -i 23 -a 1 -x {7.0 1.0 -1 ------- null}
r -t 1.608501875 -s 3 -d 0 -p ack -e 40 -c 1 -i 24 -a 1 -x {7.0 1.0 10 ------- null}
+ -t 1.608501875 -s 0 -d 1 -p ack -e 40 -c 1 -i 24 -a 1 -x {7.0 1.0 10 ------- null}
- -t 1.608501875 -s 0 -d 1 -p ack -e 40 -c 1 -i 24 -a 1 -x {7.0 1.0 10 ------- null}
h -t 1.608501875 -s 0 -d 1 -p ack -e 40 -c 1 -i 24 -a 1 -x {7.0 1.0 -1 ------- null}
r -t 1.6097675 -s 3 -d 0 -p ack -e 40 -c 1 -i 25 -a 1 -x {7.0 1.0 11 ------- null}
+ -t 1.6097675 -s 0 -d 1 -p ack -e 40 -c 1 -i 25 -a 1 -x {7.0 1.0 11 ------- null}
- -t 1.6097675 -s 0 -d 1 -p ack -e 40 -c 1 -i 25 -a 1 -x {7.0 1.0 11 ------- null}